<VTKFile type="UnstructuredGrid" byte_order="BigEndian">
<UnstructuredGrid><Piece NumberOfPoints="1395" NumberOfCells="1320">
<Points>
 <DataArray type="Float32" NumberOfComponents="3" format="ascii">
 1.049999952316284180e+00 1.500000059604644775e-01 0.000000000000000000e+00
 1.054545402526855469e+00 1.500000059604644775e-01 0.000000000000000000e+00
 1.059090852737426758e+00 1.500000059604644775e-01 0.000000000000000000e+00
 1.063636422157287598e+00 1.500000059604644775e-01 0.000000000000000000e+00
 1.068181872367858887e+00 1.500000059604644775e-01 0.000000000000000000e+00
 1.072727322578430176e+00 1.500000059604644775e-01 0.000000000000000000e+00
 1.077272772789001465e+00 1.500000059604644775e-01 0.000000000000000000e+00
 1.081818222999572754e+00 1.500000059604644775e-01 0.000000000000000000e+00
 1.086363673210144043e+00 1.500000059604644775e-01 0.000000000000000000e+00
 1.090909123420715332e+00 1.500000059604644775e-01 0.000000000000000000e+00
 1.095454573631286621e+00 1.500000059604644775e-01 0.000000000000000000e+00
 1.100000023841857910e+00 1.500000059604644775e-01 0.000000000000000000e+00
 1.104545474052429199e+00 1.500000059604644775e-01 0.000000000000000000e+00
 1.109090924263000488e+00 1.500000059604644775e-01 0.000000000000000000e+00
 1.113636374473571777e+00 1.500000059604644775e-01 0.000000000000000000e+00
 1.118181824684143066e+00 1.500000059604644775e-01 0.000000000000000000e+00
 1.122727274894714355e+00 1.500000059604644775e-01 0.000000000000000000e+00
 1.127272725105285645e+00 1.500000059604644775e-01 0.000000000000000000e+00
 1.131818175315856934e+00 1.500000059604644775e-01 0.000000000000000000e+00
 1.136363625526428223e+00 1.500000059604644775e-01 0.000000000000000000e+00
 1.140909075736999512e+00 1.500000059604644775e-01 0.000000000000000000e+00
 1.145454525947570801e+00 1.500000059604644775e-01 0.000000000000000000e+00
 1.149999976158142090e+00 1.500000059604644775e-01 0.000000000000000000e+00
 1.154545426368713379e+00 1.500000059604644775e-01 0.000000000000000000e+00
 1.159090876579284668e+00 1.500000059604644775e-01 0.000000000000000000e+00
 1.163636326789855957e+00 1.500000059604644775e-01 0.000000000000000000e+00
 1.168181777000427246e+00 1.500000059604644775e-01 0.000000000000000000e+00
 1.172727227210998535e+00 1.500000059604644775e-01 0.000000000000000000e+00
 1.177272677421569824e+00 1.500000059604644775e-01 0.000000000000000000e+00
 1.181818127632141113e+00 1.500000059604644775e-01 0.000000000000000000e+00
 1.186363577842712402e+00 1.500000059604644775e-01 0.000000000000000000e+00
 1.190909147262573242e+00 1.500000059604644775e-01 0.000000000000000000e+00
 1.195454597473144531e+00 1.500000059604644775e-01 0.000000000000000000e+00
 1.200000047683715820e+00 1.500000059604644775e-01 0.000000000000000000e+00
 1.204545497894287109e+00 1.500000059604644775e-01 0.000000000000000000e+00
 1.209090948104858398e+00 1.500000059604644775e-01 0.000000000000000000e+00
 1.213636398315429688e+00 1.500000059604644775e-01 0.000000000000000000e+00
 1.218181848526000977e+00 1.500000059604644775e-01 0.000000000000000000e+00
 1.222727298736572266e+00 1.500000059604644775e-01 0.000000000000000000e+00
 1.227272748947143555e+00 1.500000059604644775e-01 0.000000000000000000e+00
 1.231818199157714844e+00 1.500000059604644775e-01 0.000000000000000000e+00
 1.236363649368286133e+00 1.500000059604644775e-01 0.000000000000000000e+00
 1.240909099578857422e+00 1.500000059604644775e-01 0.000000000000000000e+00
 1.245454549789428711e+00 1.500000059604644775e-01 0.000000000000000000e+00
 1.250000000000000000e+00 1.500000059604644775e-01 0.000000000000000000e+00
 1.044999957084655762e+00 1.516666710376739502e-01 0.000000000000000000e+00
 1.049609780311584473e+00 1.517225205898284912e-01 0.000000000000000000e+00
 1.054219603538513184e+00 1.517783701419830322e-01 0.000000000000000000e+00
 1.058829426765441895e+00 1.518342196941375732e-01 0.000000000000000000e+00
 1.063439369201660156e+00 1.518900692462921143e-01 0.000000000000000000e+00
 1.068209409713745117e+00 1.519040912389755249e-01 0.000000000000000000e+00
 1.073086500167846680e+00 1.518902331590652466e-01 0.000000000000000000e+00
 1.077963471412658691e+00 1.518763750791549683e-01 0.000000000000000000e+00
 1.082840561866760254e+00 1.518625020980834961e-01 0.000000000000000000e+00
 1.087671875953674316e+00 1.518544554710388184e-01 0.000000000000000000e+00
 1.092320442199707031e+00 1.518696546554565430e-01 0.000000000000000000e+00
 1.096969008445739746e+00 1.518848389387130737e-01 0.000000000000000000e+00
 1.101617574691772461e+00 1.519000381231307983e-01 0.000000000000000000e+00
 1.106266140937805176e+00 1.519152224063873291e-01 0.000000000000000000e+00
 1.110545158386230469e+00 1.520090252161026001e-01 0.000000000000000000e+00
 1.114731669425964355e+00 1.521224677562713623e-01 0.000000000000000000e+00
 1.118918299674987793e+00 1.522359251976013184e-01 0.000000000000000000e+00
 1.123104810714721680e+00 1.523493826389312744e-01 0.000000000000000000e+00
 1.127188563346862793e+00 1.524739861488342285e-01 0.000000000000000000e+00
 1.131117820739746094e+00 1.526153534650802612e-01 0.000000000000000000e+00
 1.135047197341918945e+00 1.527567356824874878e-01 0.000000000000000000e+00
 1.138976573944091797e+00 1.528981029987335205e-01 0.000000000000000000e+00
 1.142905950546264648e+00 1.530394703149795532e-01 0.000000000000000000e+00
 1.147535920143127441e+00 1.530729085206985474e-01 0.000000000000000000e+00
 1.152165889739990234e+00 1.531063616275787354e-01 0.000000000000000000e+00
 1.156795859336853027e+00 1.531397998332977295e-01 0.000000000000000000e+00
 1.161425828933715820e+00 1.531732529401779175e-01 0.000000000000000000e+00
 1.166390299797058105e+00 1.531280726194381714e-01 0.000000000000000000e+00
 1.171577930450439453e+00 1.530304700136184692e-01 0.000000000000000000e+00
 1.176765561103820801e+00 1.529328674077987671e-01 0.000000000000000000e+00
 1.181953072547912598e+00 1.528352648019790649e-01 0.000000000000000000e+00
 1.187070965766906738e+00 1.527567803859710693e-01 0.000000000000000000e+00
 1.191910147666931152e+00 1.527548134326934814e-01 0.000000000000000000e+00
 1.196749210357666016e+00 1.527528464794158936e-01 0.000000000000000000e+00
 1.201588392257690430e+00 1.527508795261383057e-01 0.000000000000000000e+00
 1.206427574157714844e+00 1.527489274740219116e-01 0.000000000000000000e+00
 1.211216807365417480e+00 1.527388095855712891e-01 0.000000000000000000e+00
 1.215993642807006836e+00 1.527266651391983032e-01 0.000000000000000000e+00
 1.220770359039306641e+00 1.527145206928253174e-01 0.000000000000000000e+00
 1.225547194480895996e+00 1.527023762464523315e-01 0.000000000000000000e+00
 1.230375766754150391e+00 1.526015996932983398e-01 0.000000000000000000e+00
 1.235281825065612793e+00 1.523678600788116455e-01 0.000000000000000000e+00
 1.240187883377075195e+00 1.521341353654861450e-01 0.000000000000000000e+00
 1.245093941688537598e+00 1.519003957509994507e-01 0.000000000000000000e+00
 1.250000000000000000e+00 1.516666710376739502e-01 0.000000000000000000e+00
 1.039999961853027344e+00 1.533333361148834229e-01 0.000000000000000000e+00
 1.044674158096313477e+00 1.534450352191925049e-01 0.000000000000000000e+00
 1.049348354339599609e+00 1.535567343235015869e-01 0.000000000000000000e+00
 1.054022550582885742e+00 1.536684334278106689e-01 0.000000000000000000e+00
 1.058696746826171875e+00 1.537801325321197510e-01 0.000000000000000000e+00
 1.063691616058349609e+00 1.538081914186477661e-01 0.000000000000000000e+00
 1.068900227546691895e+00 1.537804603576660156e-01 0.000000000000000000e+00
 1.074108839035034180e+00 1.537527441978454590e-01 0.000000000000000000e+00
 1.079317450523376465e+00 1.537250131368637085e-01 0.000000000000000000e+00
 1.084434628486633301e+00 1.537089198827743530e-01 0.000000000000000000e+00
 1.089186310768127441e+00 1.537393033504486084e-01 0.000000000000000000e+00
 1.093938112258911133e+00 1.537696868181228638e-01 0.000000000000000000e+00
 1.098689794540405273e+00 1.538000553846359253e-01 0.000000000000000000e+00
 1.103441476821899414e+00 1.538304388523101807e-01 0.000000000000000000e+00
 1.107453942298889160e+00 1.540180444717407227e-01 0.000000000000000000e+00
 1.111281633377075195e+00 1.542449444532394409e-01 0.000000000000000000e+00
 1.115109324455261230e+00 1.544718444347381592e-01 0.000000000000000000e+00
 1.118936896324157715e+00 1.546987444162368774e-01 0.000000000000000000e+00
 1.122558832168579102e+00 1.549479812383651733e-01 0.000000000000000000e+00
 1.125872135162353516e+00 1.552307158708572388e-01 0.000000000000000000e+00
 1.129185318946838379e+00 1.555134505033493042e-01 0.000000000000000000e+00
 1.132498621940612793e+00 1.557961851358413696e-01 0.000000000000000000e+00
 1.135811924934387207e+00 1.560789346694946289e-01 0.000000000000000000e+00
 1.140526413917541504e+00 1.561458259820938110e-01 0.000000000000000000e+00
 1.145240902900695801e+00 1.562127172946929932e-01 0.000000000000000000e+00
 1.149955272674560547e+00 1.562796086072921753e-01 0.000000000000000000e+00
 1.154669761657714844e+00 1.563464999198913574e-01 0.000000000000000000e+00
 1.160053372383117676e+00 1.562561243772506714e-01 0.000000000000000000e+00
 1.165883183479309082e+00 1.560609340667724609e-01 0.000000000000000000e+00
 1.171712875366210938e+00 1.558657288551330566e-01 0.000000000000000000e+00
 1.177542567253112793e+00 1.556705236434936523e-01 0.000000000000000000e+00
 1.183232903480529785e+00 1.555135697126388550e-01 0.000000000000000000e+00
 1.188365697860717773e+00 1.555096358060836792e-01 0.000000000000000000e+00
 1.193498492240905762e+00 1.555057018995285034e-01 0.000000000000000000e+00
 1.198631286621093750e+00 1.555017679929733276e-01 0.000000000000000000e+00
 1.203764200210571289e+00 1.554978340864181519e-01 0.000000000000000000e+00
 1.208797216415405273e+00 1.554776281118392944e-01 0.000000000000000000e+00
 1.213805437088012695e+00 1.554533392190933228e-01 0.000000000000000000e+00
[...]
<CellData>
 <DataArray Name="pos.x" type="Float32" NumberOfComponents="1" format="ascii">
 1.049780819088127704e+00
 1.054358964061124837e+00
 1.058937078602865567e+00
 1.063515165390428008e+00
 1.068120885091475625e+00
 1.072798053572606269e+00
 1.077510884844833372e+00
 1.082223738960036430e+00
 1.086928315919692745e+00
 1.091584634211874905e+00
 1.096181926517365568e+00
 1.100779214492141778e+00
 1.105376498237873761e+00
 1.109909358133680524e+00
 1.114305113981979511e+00
 1.118670595569839943e+00
 1.123036129925934157e+00
 1.127384541549966590e+00
 1.131674580087764781e+00
 1.135912913845132266e+00
 1.140151151819954523e+00
 1.144389308150745022e+00
 1.148730405142186717e+00
 1.153318532093022153e+00
 1.157906650238840873e+00
 1.162494759854640680e+00
 1.167138141562203080e+00
 1.171932386640045287e+00
 1.176802269413035340e+00
 1.181672368316855293e+00
 1.186530566458256830e+00
 1.191316835609291358e+00
 1.196010636281427564e+00
 1.200704439038445370e+00
 1.205398243884662435e+00
 1.210080857158347900e+00
 1.214746347215576616e+00
 1.219408349775133793e+00
 1.224070359971605404e+00
 1.228732661773214829e+00
 1.233418300793714284e+00
 1.238141586328906918e+00
 1.242864316503688560e+00
 1.247586280781644019e+00
 1.044813543690507718e+00
 1.049456023353751544e+00
 1.054098476165253873e+00
 1.058740904386053838e+00
 1.063491827213257856e+00
 1.068447396037634389e+00
 1.073491709942127503e+00
 1.078536044128236560e+00
 1.083549039844744044e+00
 1.088399159709914965e+00
 1.093099571644291057e+00
 1.097799979499979761e+00
 1.102500383370782489e+00
 1.106951002494338532e+00
 1.111034029213372909e+00
 1.115040615357866249e+00
 1.119047255930858409e+00
 1.122985750469345012e+00
 1.126738095703408105e+00
 1.130360337914176228e+00
 1.133982477028078639e+00
 1.137604529349270699e+00
 1.141679241917357368e+00
 1.146351856747098497e+00
 1.151024463478772741e+00
 1.155697062357477600e+00
 1.160594007481071888e+00
 1.165920205191832926e+00
 1.171432024907804959e+00
 1.176944029627323474e+00
 1.182408898039687628e+00
 1.187626695840336977e+00
 1.192614089276972100e+00
 1.197601484562567764e+00
 1.202588881700964452e+00
 1.207539898552470126e+00
 1.212442875236436013e+00
 1.217336190842257748e+00
 1.222229513418259916e+00
 1.227148800478892854e+00
 1.232155587278684683e+00
 1.237239564133229885e+00
 1.242323035468050341e+00
 1.247405822426205457e+00
 1.039846220328237481e+00
 1.044553039408294026e+00
 1.049259834652901402e+00
 1.053966607987125936e+00
 1.058862659384350646e+00
 1.064096583092094095e+00
 1.069472388560181342e+00
 1.074848212155165905e+00
 1.080169671421867150e+00
 1.085213675348522422e+00
 1.090017207451417169e+00
 1.094820735706850900e+00
 1.099624260200710912e+00
 1.103992623310779075e+00
 1.107762906670589853e+00
 1.111410599793682508e+00
 1.115058348872321137e+00
 1.118586958955056110e+00
 1.121801840462647082e+00
 1.124807976609669913e+00
 1.127814002901366575e+00
 1.130819938045465545e+00
 1.134628037674271672e+00
 1.139385142112382621e+00
 1.144142239080643941e+00
 1.148899328797371000e+00
 1.154049589758515015e+00
 1.159907437726383606e+00
 1.166061210862821662e+00
 1.172215143975070095e+00
 1.178286804548618338e+00
 1.183936433009074030e+00
 1.189217428779030250e+00
 1.194498426200275132e+00
 1.199779425275659728e+00
 1.204998893596130882e+00
 1.210139367701462687e+00
 1.215263999522655736e+00
 1.220388637730887682e+00
 1.225564929122830327e+00
 1.230892927387939206e+00
 1.236337592310545519e+00
 1.241781795292161483e+00
 1.247225383117540831e+00
 1.034924889334400744e+00
 1.039830850704410059e+00
 1.044736829820121615e+00
 1.049642826983383070e+00
 1.054753663287409049e+00
 1.060163651899291626e+00
 1.065682446308411579e+00
 1.071201283650487168e+00
 1.076627646618892209e+00
 1.081577528124574528e+00
 1.086084182038041579e+00
 1.090590882594825617e+00
 1.095097620508363123e+00
 1.099079431087172321e+00
 1.102399790791490863e+00
 1.105584994965764789e+00
 1.108770082059083117e+00
 1.111839897183795278e+00
 1.114732459872395554e+00
 1.117626915366903395e+00
 1.120521428339585901e+00
 1.123416001145128851e+00
 1.127515389553073843e+00
 1.132888284513513311e+00
 1.138261654136059953e+00
 1.143635649942202459e+00
 1.149411245548323635e+00
 1.155754284747990912e+00
 1.162298938777881041e+00
 1.168843591709506802e+00
 1.175282157204836420e+00
 1.181183382787484248e+00
 1.186641094244730743e+00
 1.192098811536162817e+00
 1.197556534237845360e+00
 1.202952665916007691e+00
 1.208299221307963967e+00
 1.213637078773600830e+00
 1.218974945363743512e+00
 1.224383393794554298e+00
 1.229976145422045475e+00
 1.235690894073975032e+00
 1.241405601844874473e+00
 1.247120263092560410e+00
 1.030092154318488662e+00
 1.035329657043147833e+00
 1.040567175564189206e+00
 1.045804710134403681e+00
 1.051134243339664653e+00
 1.056576673554856072e+00
 1.062053897946802605e+00
 1.067531162712097137e+00
 1.072850201964715477e+00
 1.077366305853337591e+00
 1.081177248409684655e+00
 1.084988240216541389e+00
 1.088799270824390986e+00
 1.092139123493555353e+00
 1.094877692215386444e+00
 1.097492459414131760e+00
 1.100107100833687124e+00
 1.102794167238037915e+00
 1.105794840911164201e+00
 1.109079472313766246e+00
 1.112364153314860049e+00
 1.115648885764867648e+00
 1.120511956665452225e+00
 1.127027698417435442e+00
 1.133543852569696364e+00
 1.140060534405764603e+00
 1.146678086700444021e+00
 1.153365122770860340e+00
 1.160054815523255289e+00
 1.166744507226381566e+00
 1.173319865179527577e+00
 1.179316596410079354e+00
 1.184836979594638073e+00
 1.190357368341528943e+00
 1.195877762254116128e+00
 1.201389932280677808e+00
 1.206918902746198619e+00
 1.212452462196530467e+00
 1.217986030187695690e+00
 1.223586166455773228e+00
 1.229360642330743714e+00
 1.235251246172844874e+00
 1.241141811176335041e+00
 1.247032332137906874e+00
 1.025259258851444866e+00
 1.030828311553170673e+00
 1.036397378406000991e+00
 1.041966459623728802e+00
 1.047514807685266058e+00
 1.052989708992452922e+00
 1.058425361984480784e+00
 1.063861052976841082e+00
 1.069072757096934057e+00
 1.073155018178213016e+00
 1.076270255961077060e+00
 1.079385544920156814e+00
 1.082500873433862143e+00
 1.085199486277893977e+00
 1.087356557017395309e+00
 1.089400839550768385e+00
 1.091444989933789023e+00
 1.093748435149257459e+00
 1.096856277410938274e+00
 1.100531092490601104e+00
 1.104205950744130194e+00
 1.107880853649655384e+00
 1.113508050602318278e+00
 1.121166614733418054e+00
 1.128825537978456417e+00
 1.136484909627327955e+00
 1.143944838227352490e+00
 1.150975956370141384e+00
 1.157810688137090205e+00
 1.164645418900845497e+00
 1.171357570016740679e+00
 1.177449811618723974e+00
 1.183032866365137936e+00
 1.188615926420438784e+00
 1.194198991412644739e+00
 1.199827191737285137e+00
 1.205538576371116832e+00
 1.211267838733236735e+00
 1.216997109106654484e+00
 1.222788937035316659e+00
 1.228745141587222811e+00
 1.234811600163665313e+00
 1.240878021795137620e+00
 1.246944401672306801e+00
 1.020383136597896589e+00
 1.026153555822133079e+00
 1.031923961835036652e+00
 1.037694355610719210e+00
 1.043269276773963083e+00
 1.048432714371415608e+00
 1.053405685139985559e+00
 1.058378725057853353e+00
 1.063105144876017372e+00
 1.066618937765267283e+00
 1.069172535877625618e+00
 1.071726083736786794e+00
 1.074279585145172744e+00
 1.076457745359632012e+00
 1.078440733825736242e+00
 1.080403528731627150e+00
 1.082366409977880917e+00
 1.084859605838269125e+00
 1.088664649217515601e+00
 1.093297782183973110e+00
 1.097931516427068432e+00
 1.102566196942469823e+00
 1.109137858225599960e+00
 1.117437006126431154e+00
 1.125736144451731757e+00
 1.134035272544998030e+00
 1.141937270420601669e+00
 1.149110445075153253e+00
 1.155979772627931279e+00
 1.162849247675410869e+00
 1.169593047902865113e+00
 1.175717571047234289e+00
 1.181373447573350610e+00
 1.187029322353647887e+00
 1.192685195463402792e+00
 1.198434072313656840e+00
 1.204321769210055626e+00
 1.210238321434055964e+00
 1.216154881838184876e+00
 1.222131634073147177e+00
 1.228254565355890504e+00
 1.234465796696092799e+00
 1.240677030157369076e+00
 1.246888265814422248e+00
 1.015420063610431134e+00
 1.021263875560779022e+00
 1.027107675431239375e+00
 1.032951464084385984e+00
 1.038311155440902134e+00
 1.042782809186011406e+00
 1.046871916335695207e+00
 1.050961094927357786e+00
 1.054849995200113577e+00
 1.057755503301524236e+00
 1.059878938899801781e+00
 1.062002322247593167e+00
 1.064125657587466023e+00
 1.066209857556537743e+00
 1.068520863984251834e+00
 1.070888453628650039e+00
 1.073256114953157425e+00
 1.076375405328663160e+00
 1.081363863726183316e+00
 1.087523441863241125e+00
 1.093683533583339917e+00
 1.099844381000418592e+00
 1.107248936179863197e+00
 1.115691478542370385e+00
 1.124134011525290244e+00
 1.132576534494093012e+00
 1.140557218018373398e+00
 1.147701003245645612e+00
 1.154498105013158860e+00
 1.161295352564909900e+00
 1.167982478057616680e+00
 1.174127918613549149e+00
 1.179866427081087688e+00
 1.185604933872294264e+00
 1.191343439058253573e+00
 1.197213611071704875e+00
 1.203270818448048285e+00
 1.209366534418560901e+00
 1.215462258138714002e+00
 1.221604857179283687e+00
 1.227860366522268931e+00
 1.234184226192705180e+00
 1.240508087912467472e+00
 1.246831951752620737e+00
 1.010456975787558331e+00
 1.016374181752840444e+00
 1.022291376637374460e+00
 1.028208561207987648e+00
 1.033352940585427815e+00
 1.037132785765512155e+00
 1.040338043267394985e+00
 1.043543372475680187e+00
 1.046594904590780528e+00
 1.048892715794683239e+00
 1.050585963455408889e+00
 1.052279158073419429e+00
 1.053972304294956031e+00
 1.055961123371468524e+00
 1.058598435488547596e+00
 1.061370823102965044e+00
 1.064143270928447960e+00
 1.067889372291328520e+00
 1.074062585303068973e+00
 1.081748552320329626e+00
 1.089434955405932826e+00
 1.097121969012972986e+00
 1.105360015276137586e+00
 1.113945952083361446e+00
 1.122531879701320179e+00
 1.131117797516469681e+00
 1.139177166327193236e+00
 1.146291561670418124e+00
 1.153016437627451651e+00
 1.159741457661594755e+00
 1.166371909779340132e+00
 1.172538265571780647e+00
 1.178359406037075896e+00
 1.184180544891650033e+00
 1.190001682202285194e+00
 1.195993146922210260e+00
 1.202219864913903535e+00
 1.208494745013838578e+00
 1.214769632466524696e+00
 1.221078079361632707e+00
 1.227466167499023708e+00
 1.233902655549230953e+00
 1.240339145580592550e+00
 1.246775637660712421e+00
 1.005367321180785645e+00
 1.010987971356137161e+00
 1.016608877776675524e+00
 1.022229991484508993e+00
 1.026928050287606142e+00
 1.030106527295000740e+00
 1.032669164682375573e+00
 1.035231768392499863e+00
 1.037674556272666804e+00
 1.039547120184219020e+00
 1.041160710823694879e+00
 1.042774333274281373e+00
 1.044387988376236809e+00
 1.046808337511315745e+00
 1.050301430648210355e+00
 1.054018289721462942e+00
 1.057736256130598740e+00
 1.062465208247991733e+00
 1.069606945003723331e+00
 1.078168677564030009e+00
 1.086730039724248753e+00
 1.095290948492135819e+00
 1.103972882844553416e+00
 1.112585884607888653e+00
 1.121199055940266476e+00
 1.129812374087880711e+00
 1.137837216129799156e+00
 1.144886137201841736e+00
 1.151547173550833802e+00
 1.158208295902098506e+00
 1.164790661174941455e+00
 1.170990569751466204e+00
 1.176917024410172319e+00
 1.182843480466103214e+00
 1.188769937933540355e+00
 1.194898503353374775e+00
 1.201285098796905926e+00
 1.207723618704218183e+00
 1.214162142666056488e+00
 1.220624741210797559e+00
 1.227135940628445887e+00
 1.233669964910737216e+00
 1.240203988390595979e+00
 1.246738011090310128e+00
 1.000034166644005129e+00
 1.004992609374893542e+00
 1.009951307731090209e+00
 1.014910211106973881e+00
 1.019025902275018991e+00
 1.021750903175435932e+00
 1.023910101340426593e+00
 1.026069265362502980e+00
 1.028174009857728555e+00
 1.030055858333729590e+00
 1.031938268906999578e+00
 1.033820706094443986e+00
 1.035703170524286953e+00
 1.038874774910798049e+00
 1.043727438583034184e+00
 1.048927212003395892e+00
 1.054127904260893756e+00
 1.060086658634932899e+00
 1.067836071806134379e+00
 1.076631953072921144e+00
 1.085427471216606321e+00
 1.094222546316387268e+00
 1.102978757703031665e+00
 1.111505699987893836e+00
 1.120032812095642649e+00
 1.128560071158662748e+00
 1.136507747940646462e+00
 1.143494389681148027e+00
 1.150099103578382298e+00
 1.156703902545293650e+00
 1.163248423501260342e+00
 1.169502590304484224e+00
 1.175556736756128373e+00
 1.181610884549770146e+00
 1.187665033698747763e+00
 1.193929519083958724e+00
 1.200462325914115169e+00
 1.207049116101690522e+00
 1.213635910174774235e+00
 1.220233629175112133e+00
 1.226847075061872738e+00
 1.233463632337871818e+00
 1.240080188832237695e+00
 1.246696744566143877e+00
 9.947008219619059011e-01
 9.989970788178655914e-01
 1.003293587458759850e+00
 1.007590296169106336e+00
 1.011123803577955282e+00
 1.013395583661737209e+00
 1.015151329007712322e+00
 1.016907040538392648e+00
 1.018673477967630969e+00
 1.020562797547300171e+00
 1.022714037721500491e+00
 1.024865300443896121e+00
 1.027016586195525827e+00
 1.030939914822299741e+00
 1.037152465123621692e+00
 1.043835031335029306e+00
 1.050518355039630647e+00
 1.057707993206280284e+00
 1.066065213192103123e+00
 1.075095243824485625e+00
 1.084124918463605258e+00
 1.093154160120416218e+00
 1.101984630769177631e+00
 1.110425513694386801e+00
 1.118866566687126918e+00
 1.127307766766421970e+00
 1.135178279271458424e+00
 1.142102642544841506e+00
 1.148651033957118317e+00
 1.155199509510318912e+00
 1.161706186908217475e+00
 1.168014608840889146e+00
 1.174196447240198449e+00
 1.180378286929538056e+00
 1.186560127921341135e+00
 1.192960533534158207e+00
 1.199639551952852434e+00
 1.206374612589728113e+00
 1.213109676953449734e+00
 1.219842516731404647e+00
 1.226558209447163872e+00
 1.233257299731693069e+00
 1.239956389254359470e+00
 1.246655478035605169e+00
 9.893883817235147315e-01
 9.930689809297053028e-01
 9.967495673432893444e-01
 1.000430142986824755e+00
 1.003438521847430431e+00
 1.005401237026746664e+00
 1.006978627651837988e+00
 1.008556016565769209e+00
 1.010240613584775016e+00
 1.012502417674246313e+00
 1.015328519571238042e+00
 1.018155501690402920e+00
 1.020983732069073113e+00
 1.025760899107472035e+00
 1.032889423629289816e+00
 1.040499423383210553e+00
 1.048108164860013014e+00
 1.056058281407993737e+00
 1.064798014200484921e+00
 1.073938353863346462e+00
 1.083078697555968972e+00
 1.092219045115507825e+00
 1.100992803387625285e+00
 1.109332406124009074e+00
 1.117672268711191741e+00
 1.126012351053069072e+00
 1.133793391272987616e+00
 1.140671182830279351e+00
 1.147194317744546943e+00
 1.153717463867143245e+00
 1.160215784322952803e+00
 1.166598596022097700e+00
 1.172915284414259629e+00
 1.179231975544981825e+00
 1.185548669537773270e+00
 1.192091201281497481e+00
 1.198904322438803849e+00
 1.205770984822024605e+00
 1.212637647726220402e+00
 1.219492555402364564e+00
 1.226303266232534384e+00
 1.233077453832983172e+00
 1.239851654675778958e+00
 1.246625867836793189e+00
 9.841022250485479406e-01
 9.872101310363202709e-01
 9.903180239364528514e-01
 9.934259059390447844e-01
 9.960469896626388264e-01
 9.979345874125450377e-01
 9.995592079149324682e-01
 1.001183826873565330e+00
 1.003019954385751422e+00
 1.005950750040170982e+00
 1.009853721924988790e+00
 1.013757450935913740e+00
 1.017662197158131221e+00
 1.023233848311967176e+00
 1.030819751033660303e+00
 1.038818821131717751e+00
 1.046816676554992442e+00
 1.055075264328421358e+00
 1.063919037716503979e+00
 1.073040856272725163e+00
 1.082162678858680671e+00
 1.091284505311364006e+00
 1.099991054741153773e+00
 1.108215349988117993e+00
 1.116439906289487638e+00
 1.124664683140219390e+00
 1.132366438508312534e+00
 1.139224673218152128e+00
 1.145752084016257610e+00
 1.152279505844669094e+00
 1.158795930240135830e+00
 1.165265816602319315e+00
 1.171724720236471340e+00
 1.178183626511312587e+00
 1.184642535543173780e+00
 1.191316407961757307e+00
 1.198247262374728228e+00
 1.205228938790712689e+00
 1.212210615710708206e+00
 1.219171190189029641e+00
 1.226064203579370515e+00
 1.232906695135666197e+00
 1.239749199647391498e+00
 1.246591716219670465e+00
 9.788160967866080808e-01
 9.813513070513734116e-01
 9.838865042096708313e-01
 9.864216905913614220e-01
 9.886554546462362758e-01
 9.904678372045179202e-01
 9.921396891421681019e-01
 9.938115396803192114e-01
 9.957989900230708180e-01
 9.993975496433444849e-01
 1.004377244825088944e+00
 1.009357582028605149e+00
 1.014338748406277579e+00
 1.020706875071442976e+00
 1.028750143950402318e+00
 1.037138289543375169e+00
 1.045525262556233237e+00
 1.054092258845159336e+00
 1.063040061212834564e+00
 1.072143358663071755e+00
 1.081246660142694438e+00
 1.090349965488933259e+00
 1.098989302035563442e+00
 1.107098290064693735e+00
 1.115207540336301095e+00
 1.123317011934200860e+00
 1.130939485993499360e+00
 1.137778164260452307e+00
 1.144309850898260095e+00
 1.150841548391973168e+00
 1.157376076417823585e+00
 1.163933036473951743e+00
 1.170534155398220699e+00
 1.177135276870190150e+00
 1.183736401000086591e+00
 1.190541614038230556e+00
 1.197590201839276780e+00
 1.204686892368530771e+00
 1.211783583385872110e+00
 1.218849824890531508e+00
 1.225825141139812891e+00
 1.232735936580001468e+00
 1.239646744698208680e+00
 1.246557564627152948e+00
 9.735913039531171043e-01
 9.757313805207696866e-01
 9.778714497713474341e-01
 9.800115122381625188e-01
 9.820349012975163605e-01
 9.839657240417093442e-01
 9.858886853918785720e-01
 9.878118417337463653e-01
 9.901350785667610843e-01
 9.943955780679476497e-01
 1.000243107791825015e+00
 1.006089218231815297e+00
 1.011933220808202805e+00
 1.018948886657384145e+00
 1.027303767209778673e+00
 1.035919415849417380e+00
 1.044535051791459335e+00
 1.053257706277661132e+00
 1.062210658815171183e+00
 1.071267491122748217e+00
 1.080324406166538687e+00
 1.089381395154427112e+00
 1.097919320302029433e+00
 1.105921539009961485e+00
 1.113923903682576766e+00
 1.121926395150183664e+00
 1.129480296246522020e+00
 1.136322287390371777e+00
 1.142887781297124983e+00
 1.149453274928652569e+00
 1.156033610983133286e+00
 1.162692759644377238e+00
 1.169430238112540987e+00
 1.176167715637671307e+00
 1.182905192166916697e+00
 1.189838788615454668e+00
 1.196993535263192854e+00
 1.204191263306865212e+00
 1.211388990441501390e+00
 1.218549983124123548e+00
 1.225602913359453483e+00
 1.232578863134687008e+00
 1.239554860846738826e+00
 1.246530901733924779e+00
 9.684828464769390521e-01
 9.704052548050489113e-01
 9.723276557466360437e-01
 9.742500498601460723e-01
 9.762573192644264930e-01
 9.785095307925389951e-01
 9.808832597217032045e-01
 9.832571558708114168e-01
 9.860513371775794234e-01
 9.908923532676289225e-01
 9.974161875094477159e-01
 1.003938681596337812e+00
 1.010459230642026363e+00
 1.017905137314098152e+00
 1.026377777814162284e+00
 1.035049008987137142e+00
 1.043720227545481549e+00
 1.052472886248983830e+00
 1.061391692165676526e+00
 1.070376072769764653e+00
 1.079360536504169188e+00
 1.088345074499593057e+00
 1.096796735489446339e+00
 1.104699137291542899e+00
 1.112601685489672532e+00
 1.120504360766572782e+00
 1.128007386568508297e+00
 1.134879657470808878e+00
 1.141507883183937588e+00
 1.148136108627523910e+00
 1.154785979682930730e+00
 1.161548643925867097e+00
 1.168416855632686380e+00
 1.175285066424991642e+00
 1.182153276252051022e+00
 1.189200215821841100e+00
 1.196446535250411447e+00
 1.203731489137212396e+00
 1.211016442137750060e+00
 1.218259779929636855e+00
 1.225382866161058182e+00
 1.232421687686239276e+00
 1.239460556183176632e+00
 1.246499467028306940e+00
 9.633744208177394963e-01
 9.650791596863889099e-01
 9.667838911588175765e-01
 9.684886158165624259e-01
 9.704796005595989206e-01
 9.730522213675895093e-01
 9.758766947730074248e-01
 9.787013119767226099e-01
 9.819670481687491348e-01
 9.873893654514090956e-01
 9.945895328805766100e-01
 1.001788437316457392e+00
 1.008985545833044561e+00
 1.016861392315312029e+00
 1.025451788679793586e+00
 1.034178602386287116e+00
 1.042905403560127509e+00