<VTKFile type="UnstructuredGrid" byte_order="BigEndian">
<UnstructuredGrid><Piece NumberOfPoints="1891" NumberOfCells="1800">
<Points>
 <DataArray type="Float32" NumberOfComponents="3" format="ascii">
 0.000000000000000000e+00 0.000000000000000000e+00 0.000000000000000000e+00
 1.756921224296092987e-02 1.991699216887354851e-03 0.000000000000000000e+00
 3.513842448592185974e-02 3.983398433774709702e-03 0.000000000000000000e+00
 5.270763486623764038e-02 5.975097883492708206e-03 0.000000000000000000e+00
 7.027684897184371948e-02 7.966796867549419403e-03 0.000000000000000000e+00
 8.784605562686920166e-02 9.958496317267417908e-03 0.000000000000000000e+00
 1.054152697324752808e-01 1.195019576698541641e-02 0.000000000000000000e+00
 1.229844838380813599e-01 1.394189428538084030e-02 0.000000000000000000e+00
 1.405536979436874390e-01 1.593359373509883881e-02 0.000000000000000000e+00
 1.581228971481323242e-01 1.792529225349426270e-02 0.000000000000000000e+00
 1.756921112537384033e-01 1.991699263453483582e-02 0.000000000000000000e+00
 1.932613253593444824e-01 2.190869115293025970e-02 0.000000000000000000e+00
 2.108305394649505615e-01 2.390039153397083282e-02 0.000000000000000000e+00
 2.283997535705566406e-01 2.589209005236625671e-02 0.000000000000000000e+00
 2.459689676761627197e-01 2.788378857076168060e-02 0.000000000000000000e+00
 2.635381817817687988e-01 2.987548895180225372e-02 0.000000000000000000e+00
 2.811073958873748779e-01 3.186718747019767761e-02 0.000000000000000000e+00
 2.986766099929809570e-01 3.385888785123825073e-02 0.000000000000000000e+00
 3.162457942962646484e-01 3.585058450698852539e-02 0.000000000000000000e+00
 3.338150084018707275e-01 3.784228488802909851e-02 0.000000000000000000e+00
 3.513842225074768066e-01 3.983398526906967163e-02 0.000000000000000000e+00
 3.689534366130828857e-01 4.182568192481994629e-02 0.000000000000000000e+00
 3.864397108554840088e-01 4.442641511559486389e-02 0.000000000000000000e+00
 4.039018452167510986e-01 4.720466583967208862e-02 0.000000000000000000e+00
 4.213639497756958008e-01 4.998292028903961182e-02 0.000000000000000000e+00
 4.388260543346405029e-01 5.276117101311683655e-02 0.000000000000000000e+00
 4.562881886959075928e-01 5.553942546248435974e-02 0.000000000000000000e+00
 4.737502932548522949e-01 5.831767618656158447e-02 0.000000000000000000e+00
 4.912123978137969971e-01 6.109592691063880920e-02 0.000000000000000000e+00
 5.086745023727416992e-01 6.387417763471603394e-02 0.000000000000000000e+00
 5.261366367340087891e-01 6.665243208408355713e-02 0.000000000000000000e+00
 5.435987114906311035e-01 6.943068653345108032e-02 0.000000000000000000e+00
 5.610608458518981934e-01 7.220894098281860352e-02 0.000000000000000000e+00
 5.785229802131652832e-01 7.498718798160552979e-02 0.000000000000000000e+00
 5.959850549697875977e-01 7.776544243097305298e-02 0.000000000000000000e+00
 6.134471893310546875e-01 8.054369688034057617e-02 0.000000000000000000e+00
 6.309093236923217773e-01 8.332194387912750244e-02 0.000000000000000000e+00
 6.483713984489440918e-01 8.610019832849502563e-02 0.000000000000000000e+00
 6.658335328102111816e-01 8.887845277786254883e-02 0.000000000000000000e+00
 6.832956671714782715e-01 9.165669977664947510e-02 0.000000000000000000e+00
 7.007577419281005859e-01 9.443495422601699829e-02 0.000000000000000000e+00
 7.182198762893676758e-01 9.721320867538452148e-02 0.000000000000000000e+00
 7.356819510459899902e-01 9.999146312475204468e-02 0.000000000000000000e+00
 7.531440854072570801e-01 1.027697101235389709e-01 0.000000000000000000e+00
 7.706062197685241699e-01 1.055479645729064941e-01 0.000000000000000000e+00
 7.880682945251464844e-01 1.083262190222740173e-01 0.000000000000000000e+00
 8.055304288864135742e-01 1.111044660210609436e-01 0.000000000000000000e+00
 8.229925632476806641e-01 1.138827204704284668e-01 0.000000000000000000e+00
 8.404546380043029785e-01 1.166609749197959900e-01 0.000000000000000000e+00
 8.579167723655700684e-01 1.194392219185829163e-01 0.000000000000000000e+00
 8.753788471221923828e-01 1.222174763679504395e-01 0.000000000000000000e+00
 8.928409814834594727e-01 1.249957308173179626e-01 0.000000000000000000e+00
 9.103031158447265625e-01 1.277739852666854858e-01 0.000000000000000000e+00
 9.277651906013488770e-01 1.305522322654724121e-01 0.000000000000000000e+00
 9.452273249626159668e-01 1.333304792642593384e-01 0.000000000000000000e+00
 9.626894593238830566e-01 1.361087411642074585e-01 0.000000000000000000e+00
 9.801515340805053711e-01 1.388869881629943848e-01 0.000000000000000000e+00
 9.976136684417724609e-01 1.416652500629425049e-01 0.000000000000000000e+00
 1.015075802803039551e+00 1.444434970617294312e-01 0.000000000000000000e+00
 1.032537937164306641e+00 1.472217440605163574e-01 0.000000000000000000e+00
 1.049999952316284180e+00 1.500000059604644775e-01 0.000000000000000000e+00
 0.000000000000000000e+00 6.666666828095912933e-03 0.000000000000000000e+00
 1.740161143243312836e-02 8.456474170088768005e-03 0.000000000000000000e+00
 3.480322286486625671e-02 1.024628151208162308e-02 0.000000000000000000e+00
 5.220483615994453430e-02 1.203608885407447815e-02 0.000000000000000000e+00
 6.960644572973251343e-02 1.382589619606733322e-02 0.000000000000000000e+00
 8.700805902481079102e-02 1.561570353806018829e-02 0.000000000000000000e+00
 1.044096723198890686e-01 1.740551181137561798e-02 0.000000000000000000e+00
 1.219240576028823853e-01 1.933520473539829254e-02 0.000000000000000000e+00
 1.394384503364562988e-01 2.126489579677581787e-02 0.000000000000000000e+00
 1.569528430700302124e-01 2.319458872079849243e-02 0.000000000000000000e+00
 1.744672358036041260e-01 2.512428164482116699e-02 0.000000000000000000e+00
 1.919816285371780396e-01 2.705397456884384155e-02 0.000000000000000000e+00
 2.094960212707519531e-01 2.898366749286651611e-02 0.000000000000000000e+00
 2.270019501447677612e-01 3.092321008443832397e-02 0.000000000000000000e+00
 2.445078790187835693e-01 3.286275267601013184e-02 0.000000000000000000e+00
 2.620137929916381836e-01 3.480229526758193970e-02 0.000000000000000000e+00
 2.795197367668151855e-01 3.674183785915374756e-02 0.000000000000000000e+00
 2.970256507396697998e-01 3.868138045072555542e-02 0.000000000000000000e+00
 3.145315647125244141e-01 4.062092304229736328e-02 0.000000000000000000e+00
 3.319801986217498779e-01 4.290864616632461548e-02 0.000000000000000000e+00
 3.494288027286529541e-01 4.519637301564216614e-02 0.000000000000000000e+00
 3.668774366378784180e-01 4.748409986495971680e-02 0.000000000000000000e+00
 3.843260407447814941e-01 4.977182298898696899e-02 0.000000000000000000e+00
 4.017746746540069580e-01 5.205954983830451965e-02 0.000000000000000000e+00
 4.192232787609100342e-01 5.434727668762207031e-02 0.000000000000000000e+00
 4.366234242916107178e-01 5.704120546579360962e-02 0.000000000000000000e+00
 4.540235698223114014e-01 5.973513424396514893e-02 0.000000000000000000e+00
 4.714237153530120850e-01 6.242906302213668823e-02 0.000000000000000000e+00
 4.888238310813903809e-01 6.512299180030822754e-02 0.000000000000000000e+00
 5.062239766120910645e-01 6.781692057847976685e-02 0.000000000000000000e+00
 5.236241221427917480e-01 7.051084935665130615e-02 0.000000000000000000e+00
 5.410306453704833984e-01 7.321141660213470459e-02 0.000000000000000000e+00
 5.584371685981750488e-01 7.591198384761810303e-02 0.000000000000000000e+00
 5.758436322212219238e-01 7.861255109310150146e-02 0.000000000000000000e+00
 5.932501554489135742e-01 8.131311833858489990e-02 0.000000000000000000e+00
 6.106566786766052246e-01 8.401369303464889526e-02 0.000000000000000000e+00
 6.280632019042968750e-01 8.671426028013229370e-02 0.000000000000000000e+00
 6.454716920852661133e-01 8.941378444433212280e-02 0.000000000000000000e+00
 6.628801822662353516e-01 9.211330860853195190e-02 0.000000000000000000e+00
 6.802886128425598145e-01 9.481284022331237793e-02 0.000000000000000000e+00
 6.976971030235290527e-01 9.751236438751220703e-02 0.000000000000000000e+00
 7.151055932044982910e-01 1.002118885517120361e-01 0.000000000000000000e+00
 7.325140833854675293e-01 1.029114201664924622e-01 0.000000000000000000e+00
 7.499384880065917969e-01 1.056063398718833923e-01 0.000000000000000000e+00
 7.673628330230712891e-01 1.083012595772743225e-01 0.000000000000000000e+00
 7.847872376441955566e-01 1.109961867332458496e-01 0.000000000000000000e+00
 8.022116422653198242e-01 1.136911064386367798e-01 0.000000000000000000e+00
 8.196360468864440918e-01 1.163860261440277100e-01 0.000000000000000000e+00
 8.370603919029235840e-01 1.190809458494186401e-01 0.000000000000000000e+00
 8.545014858245849609e-01 1.217764392495155334e-01 0.000000000000000000e+00
 8.719425797462463379e-01 1.244719251990318298e-01 0.000000000000000000e+00
 8.893836736679077148e-01 1.271674185991287231e-01 0.000000000000000000e+00
 9.068247675895690918e-01 1.298629045486450195e-01 0.000000000000000000e+00
 9.242658615112304688e-01 1.325583904981613159e-01 0.000000000000000000e+00
 9.417069554328918457e-01 1.352538913488388062e-01 0.000000000000000000e+00
 9.589225053787231445e-01 1.379893571138381958e-01 0.000000000000000000e+00
 9.761379957199096680e-01 1.407248079776763916e-01 0.000000000000000000e+00
 9.933534860610961914e-01 1.434602737426757812e-01 0.000000000000000000e+00
 1.010568976402282715e+00 1.461957395076751709e-01 0.000000000000000000e+00
 1.027784466743469238e+00 1.489312052726745605e-01 0.000000000000000000e+00
 1.044999957084655762e+00 1.516666710376739502e-01 0.000000000000000000e+00
 0.000000000000000000e+00 1.333333365619182587e-02 0.000000000000000000e+00
 1.723401248455047607e-02 1.492124889045953751e-02 0.000000000000000000e+00
 3.446802496910095215e-02 1.650916412472724915e-02 0.000000000000000000e+00
 5.170203372836112976e-02 1.809708029031753540e-02 0.000000000000000000e+00
 6.893604993820190430e-02 1.968499645590782166e-02 0.000000000000000000e+00
 8.617005497217178345e-02 2.127291075885295868e-02 0.000000000000000000e+00
[...]
<CellData>
 <DataArray Name="pos.x" type="Float32" NumberOfComponents="1" format="ascii">
 8.702046410413059180e-03
 2.618642845495614338e-02
 4.367074954277867099e-02
 6.115500409474099869e-02
 7.863918582942769353e-02
 9.612328764905789247e-02
 1.136689449199188018e-01
 1.312106166276998664e-01
 1.487522856625480838e-01
 1.662939519410553957e-01
 1.838356153763057999e-01
 2.013772758776900540e-01
 2.189199102201737079e-01
 2.364573960058947433e-01
 2.539948803263162858e-01
 2.715323631424054196e-01
 2.890698444137301815e-01
 3.066073240983970827e-01
 3.242315595217856172e-01
 3.417354370373191230e-01
 3.592398584555242524e-01
 3.765733542537237910e-01
 3.939812324577003921e-01
 4.114237670321161389e-01
 4.289869509422328253e-01
 4.464177436433350299e-01
 4.638485253606134395e-01
 4.812792955403706330e-01
 4.987100535910605204e-01
 5.161407988799857627e-01
 5.335749627571774178e-01
 5.510089270119959970e-01
 5.684428794843862098e-01
 5.858768195668380141e-01
 6.033107466094099758e-01
 6.207446599158351619e-01
 6.381785132458089871e-01
 6.556133591190194121e-01
 6.730481877209971708e-01
 6.904829980380611243e-01
 7.079177889756376185e-01
 7.253525593499713375e-01
 7.427880273543857603e-01
 7.602305578379265905e-01
 7.776730536805807059e-01
 7.951155123251806289e-01
 8.125579309564898711e-01
 8.300003064678749265e-01
 8.474455091127924833e-01
 8.648960624810557718e-01
 8.823465552877068907e-01
 8.997969821337549190e-01
 9.172473369587224035e-01
 9.346976129362940533e-01
 9.521388818286300459e-01
 9.694779923358486373e-01
 9.868171037175197391e-01
 1.004156215977469291e+00
 1.021495329119503026e+00
 1.038834443147443443e+00
 8.618241607294154644e-03
 2.593501319370095440e-02
 4.325172255888408424e-02
 6.056836394690584546e-02
 7.788493086928274800e-02
 9.520141598461812071e-02
 1.126359278460914159e-01
 1.301227790735525192e-01
 1.476096276061726331e-01
 1.650964733595352285e-01
 1.825833162456617087e-01
 2.000701561728192579e-01
 2.175537423075139809e-01
 2.350279427613569394e-01
 2.525021417361051901e-01
 2.699763391921800038e-01
 2.874505350885833699e-01
 3.049247293828283856e-01
 3.223646795680664701e-01
 3.397775997990895580e-01
 3.571905160957575820e-01
 3.746034283139295651e-01
 3.920163363023482783e-01
 4.094292399021776108e-01
 4.268152647713187586e-01
 4.441840799906434101e-01
 4.615528840779155595e-01
 4.789216764686802796e-01
 4.962904565596485962e-01
 5.136592237053447807e-01
 5.310346056460367725e-01
 5.484129679734515150e-01
 5.657913183541387614e-01
 5.831696561685280056e-01
 6.005479807534499503e-01
 6.179262913982258576e-01
 6.353055215196929950e-01
 6.526867300282217510e-01
 6.700679209923717794e-01
 6.874490933757118061e-01
 7.048302460585597062e-01
 7.222113778293806075e-01
 7.396011361657687244e-01
 7.570059372938002795e-01
 7.744107031729581259e-01
 7.918154311832902303e-01
 8.092201184386709212e-01
 8.266247617519657531e-01
 8.440405685187020168e-01
 8.614700894432784084e-01
 8.788995486442627847e-01
 8.963289405796233122e-01
 9.137582590234684110e-01
 9.311874969569938765e-01
 9.484952934240495903e-01
 9.655877999022245417e-01
 9.826803072811670647e-01
 9.997728155648335502e-01
 1.016865324757256328e+00
 1.033957834862420322e+00
 8.534436708169520699e-03
 2.568359761859480977e-02
 4.283269500354090070e-02
 5.998172292272260786e-02
 7.713067467138946809e-02
 9.427954265326210503e-02
 1.116029107153384964e-01
 1.290349414576009712e-01
 1.464669694828440449e-01
 1.638989947056293806e-01
 1.813310170368967189e-01
 1.987630363837710190e-01
 2.161875743390812010e-01
 2.335984894569178849e-01
 2.510094030816655830e-01
 2.684203151731956449e-01
 2.858312256899306902e-01
 3.032421345887806874e-01
 3.206148990347106320e-01
 3.379567466546598564e-01
 3.552985902929969297e-01
 3.726404298030644990e-01
 3.899822650308920058e-01
 4.073240958147773538e-01
 4.246435781406932009e-01
 4.419504158415481498e-01
 4.592572422591784664e-01
 4.765640568180863346e-01
 4.938708589029529028e-01
 5.111776478551465219e-01
 5.284942479687083638e-01
 5.458170083268180095e-01
 5.631397565705862363e-01
 5.804624920680120370e-01
 5.977852141423776189e-01
 6.151079220681655579e-01
 6.324325288859411476e-01
 6.497600999592829663e-01
 6.670876532088378941e-01
 6.844151875747849223e-01
 7.017427019115269893e-01
 7.190701949789313208e-01
 7.364142433107909724e-01
 7.537813149413677971e-01
 7.711483506999211590e-01
 7.885153479018147671e-01
 8.058823035876179208e-01
 8.232492144870874329e-01
 8.406356252733789836e-01
 8.580441135054510671e-01
 8.754525388211045200e-01
 8.928608955305287198e-01
 9.102691772364392975e-01
 9.276773767206956123e-01
 9.448517069455526496e-01
 9.616976095341299713e-01
 9.785435130509364532e-01
 9.953894175002019340e-01
 1.012235322886050337e+00
 1.029081229212757131e+00
 8.464832517666024889e-03
 2.545937495982831048e-02
 4.245388460221923010e-02
 5.944835899369374510e-02
 7.644279543263368670e-02
 9.343719093411503862e-02
 1.106381592472194531e-01
 1.280067873043152227e-01
 1.453754105163469756e-01
 1.627440286965502747e-01
 1.801126416484378212e-01
 1.974812491651563306e-01
 2.148444994546175602e-01
 2.321896457102770039e-01
 2.495347904451453436e-01
 2.668799336175843306e-01
 2.842250751844229706e-01
 3.015702151008834986e-01
 3.188744824442008574e-01
 3.361445564556435062e-01
 3.534146265619234062e-01
 3.706846926194776737e-01
 3.879547544776166812e-01
 4.052248119780752500e-01
 4.224768880388536929e-01
 4.397204473066469999e-01
 4.569639956396924219e-01
 4.742075324838092021e-01
 4.914510572466950222e-01
 5.086945692946285291e-01
 5.259502035085905636e-01
 5.432155540357621604e-01
 5.604808918455489453e-01
 5.777462162606389340e-01
 5.950115265547857302e-01
 6.122768219482548346e-01
 6.295454177099575332e-01
 6.468189314329707562e-01
 6.640924256664714198e-01
 6.813658992138128534e-01
 6.986393507783387191e-01
 7.159127789526688046e-01
 7.332109063283319683e-01
 7.505396115408952129e-01
 7.678682786065127441e-01
 7.851969046037712285e-01
 8.025254863050970133e-01
 8.198540201356492307e-01
 8.372076630955097576e-01
 8.545752138119346863e-01
 8.719427280647685796e-01
 8.893102030610066100e-01
 9.066776357150775345e-01
 9.240450226092322694e-01
 9.410683710749466746e-01
 9.576910087999122023e-01
 9.743136495648139217e-01
 9.909362934550298707e-01
 1.007558940559253990e+00
 1.024181590969590605e+00
 8.393635209269185299e-03
 2.524578263170245210e-02
 4.209789666733317059e-02
 5.894997479821197095e-02
 7.580201424666389853e-02
 9.265401194091288373e-02
 1.097478825191155888e-01
 1.270446440653151821e-01
 1.443414007158715373e-01
 1.616381522811317639e-01
 1.789348985615181464e-01
 1.962316393468711562e-01
 2.135248396217255540e-01
 2.308017326064741304e-01
 2.480786240550749699e-01
 2.653555139252699036e-01
 2.826324021732368741e-01
 2.999092887535127483e-01
 3.171431817286397004e-01
 3.343407733141918747e-01
 3.515383609467327974e-01
 3.687359444801217023e-01
 3.859335237609248237e-01
 4.031310986279507680e-01
 4.203146157832569618e-01
 4.374935737515475709e-01
 4.546725206323645185e-01
 4.718514558603436049e-01
 4.890303788310185196e-01
 5.062092888973898086e-01
 5.234030259986641731e-01
 5.406091731784435916e-01
 5.578153074528419131e-01
 5.750214281302569175e-01
 5.922275344687376597e-01
 6.094336256713827060e-01
 6.266453982138735501e-01
 6.438644802856652305e-01
 6.610835425446394131e-01
 6.783025837659635293e-01
 6.955216026217329039e-01
 7.127405976699019430e-01
 7.299920033658982010e-01
 7.472817472982398179e-01
 7.645714523803711637e-01
 7.818611156155037545e-01
 7.991507336905737668e-01
 8.164403029332299999e-01
 8.337437465499061284e-01
 8.510497467465910626e-01
 8.683557096689076271e-01
 8.856616324362099890e-01
 9.029675118631054209e-01
 9.202733444181644407e-01
 9.371663501121725304e-01
 9.535893650425368850e-01
 9.700123831087258397e-01
 9.864354044001852895e-01
 1.002858429009761521e+00
 1.019281457033939686e+00
 8.322437852855892049e-03
 2.503219014893336841e-02
 4.174190845527721988e-02
 5.845159018468406437e-02
 7.516123248054071282e-02
 9.187083218081916469e-02
 1.088576056974202705e-01
 1.260825007213002558e-01
 1.433073907981666228e-01
 1.605322757354152863e-01
 1.777571553303150809e-01
 1.949820293693298456e-01
 2.122051797295515796e-01
 2.294138194386229901e-01
 2.466224575959579668e-01
 2.638310941586670677e-01
 2.810397290822583272e-01
 2.982483623205787748e-01
 3.154118808382853634e-01
 3.325369899839854537e-01
 3.496620951279439393e-01
 3.667871961213873822e-01
 3.839122928080707098e-01
 4.010373850238090898e-01
 4.181523430515352024e-01
 4.352666996815202083e-01
 4.523810450681478579e-01
 4.694953786345952285e-01
 4.866096997638992838e-01
 5.037240077953913930e-01
 5.208558478519625945e-01
 5.380027916352494444e-01
 5.551497223211049326e-01
 5.722966392032092786e-01
 5.894435415234854370e-01
 6.065904284673468982e-01
 6.237453776759041002e-01
 6.409100280126621696e-01
 6.580746582054900484e-01
 6.752392670005548103e-01
 6.924038530377422118e-01
 7.095684148391770973e-01
 7.267730985174655212e-01
 7.440238810032626660e-01
 7.612746239172220042e-01
 7.785253241846898931e-01
 7.957759784041104067e-01
 8.130265828022510410e-01
 8.302798275854650356e-01
 8.475242770339964649e-01
 8.647686883715633988e-01
 8.820130586260975791e-01
 8.992573845082751927e-01
 9.165016623679947960e-01
 9.332643302745444736e-01
 9.494877225012817723e-01
 9.657111179643691479e-01
 9.819345167574523581e-01
 9.981579189778989614e-01
 1.014381324726834510e+00
 8.264117902965380930e-03
 2.484351861199307621e-02
 4.142290307558275930e-02
 5.800227032857337844e-02
 7.458161932780386916e-02
 9.116094894407164584e-02
 1.080333067819303633e-01
 1.251795465991596412e-01
 1.423257804513801128e-01
 1.594720080882226498e-01
 1.766182292451048408e-01
 1.937644436422135408e-01
 2.109135128113038549e-01
 2.280508763283322360e-01
 2.451882381180033599e-01
 2.623255981303129203e-01
 2.794629563133065875e-01
 2.966003126129939105e-01
 3.136920465429450799e-01
 3.307437827226598070e-01
 3.477955148891625492e-01
 3.648472428924517397e-01
 3.818989665749341067e-01
 3.989506857709768095e-01
 4.159961460949965217e-01
 4.330444391528985304e-01
 4.500927212753888518e-01
 4.671409919040375724e-01
 4.841892504417480425e-01
 5.012374962493153507e-01
 5.183051941619520875e-01
 5.353911261640549313e-01
 5.524770443874919001e-01
 5.695629480730903804e-01
 5.866488364048182413e-01
 6.037347085044476591e-01
 6.208313385391920347e-01
 6.379407660175444583e-01
 6.550501716566804467e-01
 6.721595540560229010e-01
 6.892689116926478121e-01
 7.063782429075649016e-01
 7.235351609160085573e-01
 7.407428150666902633e-01
 7.579504316807301745e-01
 7.751580078766764359e-01
 7.923655404704977867e-01
 8.095730259346008983e-01
 8.267694680027112275e-01
 8.439364643718709758e-01
 8.611034368717379595e-01
 8.782703838570374844e-01
 8.954373035277014559e-01
 9.126041939102736977e-01
 9.292249214346557373e-01
 9.452717012157189069e-01
 9.613184773140919237e-01
 9.773652495387813444e-01
 9.934120176854009943e-01
 1.009458781534957827e+00
 8.204690829407602221e-03
 2.466523721968935309e-02
 4.112576711880225333e-02
 5.758627953941786171e-02
 7.404677341378768096e-02
 9.050724758538453152e-02
 1.072774908379469649e-01
 1.243383305148486329e-01
 1.413991641547190370e-01
 1.584599915026847772e-01
 1.755208122893207878e-01
 1.925816262295954595e-01
 2.096508619882789803e-01
 2.267139361903493799e-01
 2.437770086461040486e-01
 2.608400793047265798e-01
 2.779031481134140447e-01
 2.949662150172666641e-01
 3.119836650716891202e-01
 3.289611347362671467e-01
 3.459386003369031015e-01
 3.629160617208065931e-01
 3.798935187274291025e-01
 3.968709711879707114e-01
 4.138455085012499590e-01
 4.308262550834506266e-01
 4.478069905716249854e-01
 4.647877143956475332e-01
 4.817684259456512796e-01
 4.987491245684911867e-01
 5.157516495237176590e-01
 5.327747770310503617e-01
 5.497978905438298813e-01
 5.668209892858105947e-01
 5.838440724223094014e-01
 6.008671390544781943e-01
 6.179043734220436290e-01
 6.349578290820531157e-01
 6.520112625209555368e-01
 6.690646723034497922e-01
 6.861180568679208225e-01
 7.031714145121799042e-01
 7.202766450181475877e-01
 7.374369230444700607e-01
 7.545971627903457213e-01
 7.717573612940993311e-01
 7.889175152805222302e-01
 8.060776211181134299e-01
 8.232035608202274979e-01
 8.402767424220086712e-01
 8.573498995471171558e-01
 8.744230304903343187e-01
 8.914961333842220670e-01
 9.085692061794686802e-01
 9.250666353794634311e-01
 9.409603691528911629e-01
 9.568540991208238644e-01
 9.727478250830440265e-01
 9.886415468249857286e-01
 1.004535264116517501e+00
 8.145263734090395918e-03
 2.448695575827635612e-02
 4.082863103994519710e-02
 5.717028856891694100e-02
 7.351192725207691958e-02
 8.985354590468515312e-02
 1.065216747874272590e-01
 1.234971143070281718e-01
 1.404725477162659109e-01
 1.574479747556569720e-01
 1.744233951508119551e-01
 1.913988086113542764e-01
 2.083882110979428381e-01
 2.253769959790411226e-01
 2.423657790945529245e-01
 2.593545603928357757e-01
 2.763433398202065905e-01
 2.933321173208547350e-01
 3.102752834179764441e-01
 3.271784865524202113e-01
 3.440816855712293121e-01
 3.609848803187636346e-01
 3.778880706314402538e-01
 3.947912563372138472e-01
 4.116948704117174840e-01
 4.286080704768183147e-01
 4.455212592858757148e-01
 4.624344362567487932e-01
 4.793476007664375649e-01
 4.962607521474588501e-01
 5.131981041678177480e-01
 5.301584271227024470e-01
 5.471187358621710795e-01
 5.640790295924658082e-01
 5.810393074595798790e-01
 5.979995685435012254e-01
 6.149774071077247495e-01
 6.319748908493518780e-01
 6.489723519783330286e-01
 6.659697890235209972e-01
 6.829672003832948368e-01
 6.999645843107866749e-01
 7.170181270587869804e-01
 7.341310287730892226e-01
 7.512438914421319947e-01
 7.683567120211259871e-01
 7.854694871402466694e-01
 8.025822130601002469e-01
 8.196376514278216341e-01
 8.366170180496833586e-01
 8.535963595649035396e-01
 8.705756742053918362e-01
 8.875549600330148170e-01
 9.045342149187436398e-01
 9.209083485295525007e-01
 9.366490362235102562e-01
 9.523897199830817506e-01
 9.681303995980909960e-01
 9.838710748432526465e-01
 9.996117454765803823e-01
 8.097341919165404467e-03
 2.433099423501269148e-02
 4.056463941909702053e-02
 5.679827714686639523e-02
 7.303190707377264779e-02
 8.926552883370718339e-02
 1.058273769408069748e-01
 1.227125337562569724e-01
 1.395976848754009458e-01
 1.564828300580908271e-01
 1.733679690504859594e-01
 1.902531015840633610e-01
 2.071576732558508271e-01
 2.240689265116068696e-01
 2.409801777483418228e-01
 2.578914269037153040e-01
 2.748026739127961693e-01
 2.917139187079280105e-01
 3.085811731378120815e-01
 3.254089765990371697e-01
 3.422367758321582243e-01
 3.590645706751192656e-01
 3.758923609574780778e-01
 3.927201464998547054e-01
 4.095517809633863471e-01
 4.263957742366402126e-01
 4.432397565074402412e-01
 4.600837272081291229e-01
 4.769276857312903517e-01
 4.937716314262566852e-01
 5.106414584996581407e-01
 5.275370304629612983e-01
 5.444325875039164320e-01
 5.613281287714984025e-01
 5.782236533487135066e-01
 5.951191602460922381e-01
 6.120357893053073317e-01
 6.289755020717797684e-01
 6.459151911168654614e-01
 6.628548548653571126e-01
 6.797944915993509030e-01
 6.967340994418884659e-01
 7.137335150095589498e-01
 7.307921336402197765e-01
 7.478507182472052817e-01
 7.649092662711601820e-01
 7.819677748893814062e-01
 7.990262409811348387e-01
 8.160025537932121820e-01
 8.328771205063323357e-01
 8.497516687014092795e-01
 8.666261971515202278e-01
 8.835007045189543495e-01
 9.003751893422794472e-01
 9.166202503954445913e-01
 9.322296687847327901e-01
 9.478390638344799113e-01
 9.634484337921789265e-01
 9.790577767254716735e-01
 9.946670904982757300e-01
 8.048541127104338541e-03
 2.418459179534016013e-02
 4.032063524236663421e-02
 5.645667113746730831e-02
 7.259269912941794523e-02
 8.872871884487178173e-02
 1.051941716443169361e-01
 1.219841337131455788e-01
 1.387740900106199382e-01
 1.555640402918591347e-01
 1.723539842979296965e-01
 1.891439217548236962e-01
 2.059605256265114592e-01
 2.227910191494393288e-01
 2.396215106292295116e-01
 2.564520000024451685e-01
 2.732824872029859797e-01
 2.901129721619634116e-01
 3.069015760716044539e-01
 3.236528489441681811e-01
 3.404041175331354863e-01
 3.571553816733389897e-01
 3.739066411910019760e-01
 3.906578959031867804e-01
 4.074158063916255568e-01
 4.241889136676034733e-01
 4.409620097747590228e-01
 4.577350941330329270e-01
 4.745081661214456403e-01
 4.912812250744905129e-01
 5.080822676498991664e-01
 5.249111567602672279e-01
 5.417400307000632687e-01
 5.585688885979541718e-01
 5.753977295145971116e-01
 5.922265524358263367e-01
 6.090800567812647559e-01
 6.259602180324201903e-01
 6.428403551209916911e-01
 6.597204664301313803e-01
 6.766005501954673873e-01
 6.934806044878428777e-01
 7.104195688856740354e-01
 7.274168291400912034e-01
 7.444140546323825269e-01
 7.614112427245571801e-01
 7.784083905048351237e-01
 7.954054947509971996e-01
 8.122932107583457073e-01
 8.290517398697232476e-01
 8.458102499309735345e-01
 8.625687396643862970e-01
 8.793272076752863819e-01
 8.960856524385578670e-01
 9.122183173712870019e-01
 9.277189621088728355e-01
 9.432195826784465220e-01
 9.587201772385454124e-01
 9.742207437558177974e-01
 9.897212799791863524e-01
 7.999740326323258321e-03
 2.403818932832769636e-02
 4.007663101798303318e-02
 5.611506505825140240e-02
 7.215349109105896608e-02
 8.819190873562865463e-02
 1.045609662526642281e-01
 1.212557335559855398e-01
 1.379504950114137651e-01
 1.546452503692110625e-01
 1.713399993652157116e-01
 1.880347417197801574e-01
 2.047633779197543247e-01
 2.215131117020925633e-01
 2.382628434167461395e-01
 2.550125729991463697e-01
 2.717623003820051619e-01
 2.885120254951751839e-01
 3.052219788112028320e-01
 3.218967210785272925e-01
 3.385714590056772000e-01
 3.552461924242880098e-01
 3.719209211571680718e-01
 3.885956450177135424e-01
 4.052798313002256569e-01
 4.219820525342660722e-01
 4.386842624294217119e-01
 4.553864603928223787e-01
 4.720886457895532295e-01
 4.887908179388206764e-01
 5.055230759903883708e-01
 5.222852821799088829e-01
 5.390474729445735580e-01
 5.558096473921260161e-01
 5.725718045601146944e-01
 5.893339434088983309e-01
 6.061243228925480286e-01
 6.229449325098043166e-01
 6.397655175113687864e-01
 6.565860762373658677e-01
 6.734066068752293521e-01
 6.902271074417879460e-01
 7.071056205640631198e-01
 7.240415222359393166e-01
 7.409773883841433983e-01
 7.579132162889525848e-01
 7.748490029456976957e-01
 7.917847450265064202e-01
 8.085838655409020026e-01
 8.252263568346158706e-01
 8.418688285236195501e-01
 8.585112792764509893e-01
 8.751537076384769964e-01
 8.917961120169854983e-01
 9.078163806352106402e-01
 9.232082513467583240e-01
 9.386000970188735915e-01
 9.539919157150780205e-01
 9.693837052939725529e-01
 9.847754633813815550e-01
 7.961075253196800081e-03
 2.391127240008124669e-02
 3.986146699572767904e-02
 5.581165895628550921e-02
 7.176184819418923722e-02
 8.771203461794993550e-02
 1.039829524980610959e-01
 1.205796084112188415e-01
 1.371762599125802007e-01
 1.537729068266903698e-01
 1.703695489686669062e-01
 1.869661861435552852e-01
 2.036016707268791803e-01
 2.202674996171969102e-01
 2.369333261824412840e-01
 2.535991503464163355e-01
 2.702649720295557945e-01
 2.869307911487380403e-01
 3.035602162687605077e-01
 3.201570124196713163e-01
 3.367538040261167653e-01
 3.533505909082474417e-01
 3.699473728765870217e-01
 3.865441497314026642e-01
 4.031533572308915736e-01
 4.197827529652825018e-01
 4.364121375707391559e-01
 4.530415104655106662e-01
 4.696708710265815045e-01
 4.863002185859406357e-01
 5.029611230319245285e-01
 5.196543038908464363e-01
 5.363474687394567120e-01
 5.530406166345138708e-01
 5.697337465571385984e-01
 5.864268574051599847e-01
 6.031516638874392378e-01
 6.199094307571563212e-01
 6.366671730116475469e-01
 6.534248889791551829e-01
 6.701825768329676691e-01
 6.869402345731751014e-01
 7.037540994512819781e-01
 7.206199871153382563e-01
 7.374858454417881903e-01