<VTKFile type="UnstructuredGrid" byte_order="BigEndian">
<UnstructuredGrid><Piece NumberOfPoints="1891" NumberOfCells="1800">
<Points>
 <DataArray type="Float32" NumberOfComponents="3" format="ascii">
 0.000000000000000000e+00 0.000000000000000000e+00 0.000000000000000000e+00
 1.769728958606719971e-02 1.080806250683963299e-03 0.000000000000000000e+00
 3.539457917213439941e-02 2.161612501367926598e-03 0.000000000000000000e+00
 5.309186875820159912e-02 3.242418635636568069e-03 0.000000000000000000e+00
 7.078915834426879883e-02 4.323225002735853195e-03 0.000000000000000000e+00
 8.848644793033599854e-02 5.404031369835138321e-03 0.000000000000000000e+00
 1.061837375164031982e-01 6.484837271273136139e-03 0.000000000000000000e+00
 1.238810271024703979e-01 7.565643638372421265e-03 0.000000000000000000e+00
 1.415783166885375977e-01 8.646450005471706390e-03 0.000000000000000000e+00
 1.592756062746047974e-01 9.727256372570991516e-03 0.000000000000000000e+00
 1.769728958606719971e-01 1.080806273967027664e-02 0.000000000000000000e+00
 1.946701854467391968e-01 1.188886910676956177e-02 0.000000000000000000e+00
 2.123674750328063965e-01 1.296967454254627228e-02 0.000000000000000000e+00
 2.300647646188735962e-01 1.405048090964555740e-02 0.000000000000000000e+00
 2.477620542049407959e-01 1.513128727674484253e-02 0.000000000000000000e+00
 2.654593288898468018e-01 1.621209457516670227e-02 0.000000000000000000e+00
 2.831566333770751953e-01 1.729290001094341278e-02 0.000000000000000000e+00
 3.008539080619812012e-01 1.837370544672012329e-02 0.000000000000000000e+00
 3.185512125492095947e-01 1.945451274514198303e-02 0.000000000000000000e+00
 3.362484872341156006e-01 2.053531818091869354e-02 0.000000000000000000e+00
 3.539457917213439941e-01 2.161612547934055328e-02 0.000000000000000000e+00
 3.716430664062500000e-01 2.269693091511726379e-02 0.000000000000000000e+00
 3.893403708934783936e-01 2.377773821353912354e-02 0.000000000000000000e+00
 4.070376455783843994e-01 2.485854364931583405e-02 0.000000000000000000e+00
 4.247349500656127930e-01 2.593934908509254456e-02 0.000000000000000000e+00
 4.424322247505187988e-01 2.702015638351440430e-02 0.000000000000000000e+00
 4.601295292377471924e-01 2.810096181929111481e-02 0.000000000000000000e+00
 4.778268039226531982e-01 2.918176911771297455e-02 0.000000000000000000e+00
 4.955241084098815918e-01 3.026257455348968506e-02 0.000000000000000000e+00
 5.130474567413330078e-01 3.259456530213356018e-02 0.000000000000000000e+00
 5.303685069084167480e-01 3.638183698058128357e-02 0.000000000000000000e+00
 5.476895570755004883e-01 4.016910865902900696e-02 0.000000000000000000e+00
 5.650106072425842285e-01 4.395638033747673035e-02 0.000000000000000000e+00
 5.823316574096679688e-01 4.774365574121475220e-02 0.000000000000000000e+00
 5.996527075767517090e-01 5.153092741966247559e-02 0.000000000000000000e+00
 6.169737577438354492e-01 5.531819909811019897e-02 0.000000000000000000e+00
 6.342948079109191895e-01 5.910547077655792236e-02 0.000000000000000000e+00
 6.516158580780029297e-01 6.289274245500564575e-02 0.000000000000000000e+00
 6.689369082450866699e-01 6.668001413345336914e-02 0.000000000000000000e+00
 6.862579584121704102e-01 7.046728581190109253e-02 0.000000000000000000e+00
 7.035790085792541504e-01 7.425455749034881592e-02 0.000000000000000000e+00
 7.209000587463378906e-01 7.804182916879653931e-02 0.000000000000000000e+00
 7.382211089134216309e-01 8.182910084724426270e-02 0.000000000000000000e+00
 7.555421590805053711e-01 8.561637252569198608e-02 0.000000000000000000e+00
 7.728632092475891113e-01 8.940364420413970947e-02 0.000000000000000000e+00
 7.901842594146728516e-01 9.319091588258743286e-02 0.000000000000000000e+00
 8.075053095817565918e-01 9.697818756103515625e-02 0.000000000000000000e+00
 8.248263597488403320e-01 1.007654666900634766e-01 0.000000000000000000e+00
 8.421474099159240723e-01 1.045527383685112000e-01 0.000000000000000000e+00
 8.594684600830078125e-01 1.083400100469589233e-01 0.000000000000000000e+00
 8.767895102500915527e-01 1.121272817254066467e-01 0.000000000000000000e+00
 8.941105604171752930e-01 1.159145534038543701e-01 0.000000000000000000e+00
 9.114316105842590332e-01 1.197018250823020935e-01 0.000000000000000000e+00
 9.287526607513427734e-01 1.234890967607498169e-01 0.000000000000000000e+00
 9.460737109184265137e-01 1.272763609886169434e-01 0.000000000000000000e+00
 9.633947610855102539e-01 1.310636401176452637e-01 0.000000000000000000e+00
 9.807158112525939941e-01 1.348509043455123901e-01 0.000000000000000000e+00
 9.980368614196777344e-01 1.386381834745407104e-01 0.000000000000000000e+00
 1.015357851982116699e+00 1.424254626035690308e-01 0.000000000000000000e+00
 1.032678961753845215e+00 1.462127268314361572e-01 0.000000000000000000e+00
 1.049999952316284180e+00 1.500000059604644775e-01 0.000000000000000000e+00
 0.000000000000000000e+00 6.666666828095912933e-03 0.000000000000000000e+00
 1.755674928426742554e-02 7.587457075715065002e-03 0.000000000000000000e+00
 3.511349856853485107e-02 8.508247323334217072e-03 0.000000000000000000e+00
 5.267024785280227661e-02 9.429037570953369141e-03 0.000000000000000000e+00
 7.022699713706970215e-02 1.034982874989509583e-02 0.000000000000000000e+00
 8.778374642133712769e-02 1.127061899751424789e-02 0.000000000000000000e+00
 1.053404957056045532e-01 1.219140924513339996e-02 0.000000000000000000e+00
 1.229850575327873230e-01 1.322725322097539902e-02 0.000000000000000000e+00
 1.406296193599700928e-01 1.426309719681739807e-02 0.000000000000000000e+00
 1.582741886377334595e-01 1.529894117265939713e-02 0.000000000000000000e+00
 1.759187579154968262e-01 1.633478514850139618e-02 0.000000000000000000e+00
 1.935633122920989990e-01 1.737062819302082062e-02 0.000000000000000000e+00
 2.112078815698623657e-01 1.840647310018539429e-02 0.000000000000000000e+00
 2.288479357957839966e-01 1.945080794394016266e-02 0.000000000000000000e+00
 2.464880049228668213e-01 2.049514278769493103e-02 0.000000000000000000e+00
 2.641280591487884521e-01 2.153947763144969940e-02 0.000000000000000000e+00
 2.817681133747100830e-01 2.258381247520446777e-02 0.000000000000000000e+00
 2.994081974029541016e-01 2.362814731895923615e-02 0.000000000000000000e+00
 3.170482516288757324e-01 2.467248216271400452e-02 0.000000000000000000e+00
 3.346709012985229492e-01 2.572840079665184021e-02 0.000000000000000000e+00
 3.522935211658477783e-01 2.678431943058967590e-02 0.000000000000000000e+00
 3.699161708354949951e-01 2.784023806452751160e-02 0.000000000000000000e+00
 3.875388205051422119e-01 2.889615669846534729e-02 0.000000000000000000e+00
 4.051614701747894287e-01 2.995207533240318298e-02 0.000000000000000000e+00
 4.227840900421142578e-01 3.100799396634101868e-02 0.000000000000000000e+00
 4.402721822261810303e-01 3.271788358688354492e-02 0.000000000000000000e+00
 4.577602446079254150e-01 3.442776948213577271e-02 0.000000000000000000e+00
 4.752483367919921875e-01 3.613765910267829895e-02 0.000000000000000000e+00
 4.927364289760589600e-01 3.784754872322082520e-02 0.000000000000000000e+00
 5.102245211601257324e-01 3.955743834376335144e-02 0.000000000000000000e+00
 5.277125835418701172e-01 4.126732796430587769e-02 0.000000000000000000e+00
 5.449436902999877930e-01 4.491265863180160522e-02 0.000000000000000000e+00
 5.621748566627502441e-01 4.855798929929733276e-02 0.000000000000000000e+00
 5.794059634208679199e-01 5.220331996679306030e-02 0.000000000000000000e+00
 5.966371297836303711e-01 5.584865063428878784e-02 0.000000000000000000e+00
 6.138682365417480469e-01 5.949398130178451538e-02 0.000000000000000000e+00
 6.310994029045104980e-01 6.313931196928024292e-02 0.000000000000000000e+00
 6.483666300773620605e-01 6.682226061820983887e-02 0.000000000000000000e+00
 6.656338572502136230e-01 7.050520181655883789e-02 0.000000000000000000e+00
 6.829010844230651855e-01 7.418815046548843384e-02 0.000000000000000000e+00
 7.001683115959167480e-01 7.787109166383743286e-02 0.000000000000000000e+00
 7.174355387687683105e-01 8.155404031276702881e-02 0.000000000000000000e+00
 7.347027659416198730e-01 8.523698151111602783e-02 0.000000000000000000e+00
 7.519944906234741211e-01 8.891428261995315552e-02 0.000000000000000000e+00
 7.692862153053283691e-01 9.259158372879028320e-02 0.000000000000000000e+00
 7.865779399871826172e-01 9.626888483762741089e-02 0.000000000000000000e+00
 8.038696646690368652e-01 9.994618594646453857e-02 0.000000000000000000e+00
 8.211613893508911133e-01 1.036234870553016663e-01 0.000000000000000000e+00
 8.384531140327453613e-01 1.073007881641387939e-01 0.000000000000000000e+00
 8.557639122009277344e-01 1.109791845083236694e-01 0.000000000000000000e+00
 8.730747103691101074e-01 1.146575808525085449e-01 0.000000000000000000e+00
 8.903855085372924805e-01 1.183359771966934204e-01 0.000000000000000000e+00
 9.076963067054748535e-01 1.220143735408782959e-01 0.000000000000000000e+00
 9.250071048736572266e-01 1.256927698850631714e-01 0.000000000000000000e+00
 9.423179626464843750e-01 1.293711662292480469e-01 0.000000000000000000e+00
 9.594315886497497559e-01 1.330870836973190308e-01 0.000000000000000000e+00
 9.765452742576599121e-01 1.368030011653900146e-01 0.000000000000000000e+00
 9.936589598655700684e-01 1.405189186334609985e-01 0.000000000000000000e+00
 1.010772585868835449e+00 1.442348361015319824e-01 0.000000000000000000e+00
 1.027886271476745605e+00 1.479507535696029663e-01 0.000000000000000000e+00
 1.044999957084655762e+00 1.516666710376739502e-01 0.000000000000000000e+00
 0.000000000000000000e+00 1.333333365619182587e-02 0.000000000000000000e+00
 1.741620898246765137e-02 1.409410778433084488e-02 0.000000000000000000e+00
 3.483241796493530273e-02 1.485488284379243851e-02 0.000000000000000000e+00
 5.224862694740295410e-02 1.561565697193145752e-02 0.000000000000000000e+00
 6.966483592987060547e-02 1.637643203139305115e-02 0.000000000000000000e+00
 8.708104491233825684e-02 1.713720709085464478e-02 0.000000000000000000e+00
[...]
<CellData>
 <DataArray Name="pos.x" type="Float32" NumberOfComponents="1" format="ascii">
 8.779671160717270398e-03
 2.640598819696112973e-02
 4.403227126136956965e-02
 6.165851782810119475e-02
 7.928472511455247895e-02
 9.691089004788080996e-02
 1.145870898149814743e-01
 1.322579540682852217e-01
 1.499288174013355956e-01
 1.675996797935637439e-01
 1.852705412237801719e-01
 2.029414016701595880e-01
 2.206135154526843722e-01
 2.382821573687185501e-01
 2.559507988712249049e-01
 2.736194399526056253e-01
 2.912880806050683336e-01
 3.089567208206364102e-01
 3.266246404904727396e-01
 3.442846145763965304e-01
 3.619445887313890164e-01
 3.796045629562553314e-01
 3.972645372518103790e-01
 4.149245116188910454e-01
 4.327262456098696086e-01
 4.503011366489629852e-01
 4.678793882384892355e-01
 4.854601305037142267e-01
 5.027679733777901117e-01
 5.198679633976744929e-01
 5.376478475959862724e-01
 5.549232924159709368e-01
 5.721987064028134506e-01
 5.894740873009276516e-01
 6.067494326292355300e-01
 6.240247396522398127e-01
 6.413174329876255575e-01
 6.586110618127143379e-01
 6.759046696136820076e-01
 6.931982550615035654e-01
 7.104918167127743933e-01
 7.277853529970376156e-01
 7.450808073880987870e-01
 7.623863270658796099e-01
 7.796918006134164747e-01
 7.969972242598337697e-01
 8.143025938117519624e-01
 8.316079045923820967e-01
 8.489163315342870275e-01
 8.662309431960457662e-01
 8.835454693294189088e-01
 9.008599013036912018e-01
 9.181742292863520616e-01
 9.354884420265933143e-01
 9.527960766180036956e-01
 9.700136089779139992e-01
 9.872311444367461997e-01
 1.004448683080706006e+00
 1.021666224999255412e+00
 1.038883770285260688e+00
 8.709398414971248475e-03
 2.619516956275428840e-02
 4.368090616062009907e-02
 6.116660561729395096e-02
 7.865226507572613268e-02
 9.613788137812089019e-02
 1.137174839989036901e-01
 1.313356222026522413e-01
 1.489537594795624365e-01
 1.665718958088470980e-01
 1.841900311690909398e-01
 2.018081655382298056e-01
 2.194253049073660033e-01
 2.370367196688320799e-01
 2.546481340135450799e-01
 2.722595479338150160e-01
 2.898709614217656605e-01
 3.074823744693166439e-01
 3.250843602095148666e-01
 3.426696859304136922e-01
 3.602550117210423508e-01
 3.778403375822178001e-01
 3.954256635147711529e-01
 4.130109895195390179e-01
 4.305192497763402071e-01
 4.479486285784605726e-01
 4.653780077872371468e-01
 4.828073874071442950e-01
 5.002367674427502520e-01
 5.176661478986688270e-01
 5.349468611702919985e-01
 5.521323832487525785e-01
 5.693178738146971174e-01
 5.865033305409828035e-01
 6.036887508655424117e-01
 6.208741319609708542e-01
 6.380950112183938483e-01
 6.553348115656804085e-01
 6.725745905114964840e-01
 6.898143466931175860e-01
 7.070540786296451996e-01
 7.242937847088595227e-01
 7.415476180028047759e-01
 7.588238060059208090e-01
 7.760999469738618650e-01
 7.933760370331115475e-01
 8.106520718728398300e-01
 8.279280466814091799e-01
 8.452166528011493263e-01
 8.625209981073094223e-01
 8.798252560232479036e-01
 8.971294176606599002e-01
 9.144334728835359360e-01
 9.317374100813561322e-01
 9.489366603972451131e-01
 9.659468235741369702e-01
 9.829569899468416638e-01
 9.999671596055158540e-01
 1.016977332643826504e+00
 1.033987509159050466e+00
 8.639125624016627536e-03
 2.598435078300102147e-02
 4.332954079910614903e-02
 6.067469301334414006e-02
 7.801980449154041763e-02
 9.536487198778761942e-02
 1.128478781623028365e-01
 1.304132903147670330e-01
 1.479787015337376832e-01
 1.655441117982053012e-01
 1.831095210865258671e-01
 2.006749293763942510e-01
 2.182370943453261214e-01
 2.357912819510979974e-01
 2.533454691368526301e-01
 2.708996558948089661e-01
 2.884538422170014327e-01
 3.060080280952546250e-01
 3.235440799357218178e-01
 3.410547572920291093e-01
 3.585654347187398616e-01
 3.760761122166813020e-01
 3.935867897866897058e-01
 4.110974674296273834e-01
 4.285096520506491147e-01
 4.458215176076495978e-01
 4.631333835773950303e-01
 4.804452499644757957e-01
 4.977571167735448388e-01
 5.150689840093263250e-01
 5.322458729651418086e-01
 5.493414721103593301e-01
 5.664370390417015066e-01
 5.835325713574359696e-01
 6.006280664110095202e-01
 6.177235212790238572e-01
 6.348725881567690577e-01
 6.520585599227450846e-01
 6.692445099001469444e-01
 6.864304366914393274e-01
 7.036163387769530653e-01
 7.208022145012215054e-01
 7.380144262022013679e-01
 7.552612823154951638e-01
 7.725080904638573776e-01
 7.897548466675742285e-01
 8.070015464941401317e-01
 8.242481849919853776e-01
 8.415169701084667109e-01
 8.588110486577497094e-01
 8.761050378997502497e-01
 8.933989286788518447e-01
 9.106927105436067871e-01
 9.279863715092352416e-01
 9.450772452761910802e-01
 9.618800393616195876e-01
 9.786828367442579335e-01
 9.954856375185847650e-01
 1.012288441782705606e+00
 1.029091249638637073e+00
 8.580845014603837376e-03
 2.579640288546547131e-02
 4.301194286970149577e-02
 6.022746388879855750e-02
 7.744296477575661475e-02
 9.465844426582348259e-02
 1.120358392035408768e-01
 1.295406437621405005e-01
 1.470454467153138045e-01
 1.645502480191484429e-01
 1.820550476281132257e-01
 1.995598454949876754e-01
 2.170640500020282471e-01
 2.345568384912501969e-01
 2.520496267385912148e-01
 2.695424147399074766e-01
 2.870352024909583188e-01
 3.045279899874126506e-01
 3.219938296937330802e-01
 3.394252455079565522e-01
 3.568566614692583738e-01
 3.742880775791215253e-01
 3.917194938390423098e-01
 4.091509102505404005e-01
 4.264636712752492009e-01
 4.436606650530413032e-01
 4.608576592170759989e-01
 4.780546537728361245e-01
 4.952516487259123745e-01
 5.124486440819933097e-01
 5.295276637034507239e-01
 5.465358823572029623e-01
 5.635440739544571587e-01
 5.805522365916069294e-01
 5.975603681821918256e-01
 6.145684664343779025e-01
 6.316430949876387091e-01
 6.487762728292462144e-01
 6.659094229705484480e-01
 6.830425434859134226e-01
 7.001756322669536736e-01
 7.173086870004414806e-01
 7.344814114483499967e-01
 7.516988019567724111e-01
 7.689161396784781610e-01
 7.861334200820789819e-01
 8.033506381021792153e-01
 8.205677880585019457e-01
 8.378137566205116071e-01
 8.550791271976118102e-01
 8.723444363315171479e-01
 8.896096784069225105e-01
 9.068748471027490154e-01
 9.241399352778053577e-01
 9.411062549026281143e-01
 9.577201060177872316e-01
 9.743339547367679820e-01
 9.909478009399461662e-01
 1.007561644499631148e+00
 1.024175485279296138e+00
 8.521185788177475240e-03
 2.561742502363100610e-02
 4.271364611082340002e-02
 5.980984794728731041e-02
 7.690602933941340091e-02
 9.400218899283230289e-02
 1.112857248175339597e-01
 1.287220919022309118e-01
 1.461584573668320841e-01
 1.635948211668251939e-01
 1.810311832560549394e-01
 1.984675435866415927e-01
 2.159047356599610723e-01
 2.333319269702825161e-01
 2.507591180366086081e-01
 2.681863088547405405e-01
 2.856134994203881061e-01
 3.030406897291508250e-01
 3.204317844428122841e-01
 3.377792996941432757e-01
 3.551268150941230273e-01
 3.724743306442515056e-01
 3.898218463460538796e-01
 4.071693622010734703e-01
 4.243840752065667909e-01
 4.414688691877369231e-01
 4.585536635609435141e-01
 4.756384583317959658e-01
 4.927232535060066532e-01
 5.098080490894018046e-01
 5.267883711683968295e-01
 5.437115883632893665e-01
 5.606347779201925619e-01
 5.775579378766924066e-01
 5.944810660800639024e-01
 6.114041601636638346e-01
 6.284105234442139976e-01
 6.454921116708924878e-01
 6.625736716705096230e-01
 6.796552014658073793e-01
 6.967366988904499792e-01
 7.138181615658177881e-01
 7.309503109867069304e-01
 7.481381943907298160e-01
 7.653260239252274166e-01
 7.825137949297904516e-01
 7.997015021904909648e-01
 8.168891398551882954e-01
 8.340965093513311723e-01
 8.513140717741698449e-01
 8.685315712328189885e-01
 8.857490019173233087e-01
 9.029663572802487659e-01
 9.201836299157792887e-01
 9.370413418132949035e-01
 9.534851725188115967e-01
 9.699290007476742970e-01
 9.863728263743368752e-01
 1.002816649264695270e+00
 1.019260469275270697e+00
 8.461526539699186847e-03
 2.543844709170255472e-02
 4.241534922802684543e-02
 5.939223182153617608e-02
 7.636909365119662341e-02
 9.334593339209081020e-02
 1.105356103987327615e-01
 1.279035400055616445e-01
 1.452714679774212703e-01
 1.626393942691940486e-01
 1.800073188340838570e-01
 1.973752416235420859e-01
 2.147454213061769368e-01
 2.321070154367239902e-01
 2.494686093211323785e-01
 2.668302029551522514e-01
 2.841917963344280373e-01
 3.015533894545127103e-01
 3.188697392122908369e-01
 3.361333539020425754e-01
 3.533969687420368544e-01
 3.706605837337952347e-01
 3.879241988788678652e-01
 4.051878141788267107e-01
 4.223044792093720856e-01
 4.392770733988471954e-01
 4.562496679862845794e-01
 4.732222629774295308e-01
 4.901948583781075008e-01
 5.071674541942894354e-01
 5.240490770062894432e-01
 5.408872925755116023e-01
 5.577254799069205626e-01
 5.745636369768725160e-01
 5.914017615635972502e-01
 6.082398512224094222e-01
 6.251779502636738428e-01
 6.422079487354845906e-01
 6.592379184391136127e-01
 6.762678573438783980e-01
 6.932977632233445764e-01
 7.103276336311694639e-01
 7.274192077701355785e-01
 7.445775838132772106e-01
 7.617359048730361071e-01
 7.788941661553294704e-01
 7.960523622920643305e-01
 8.132104872525161010e-01
 8.303792581621990410e-01
 8.475490120250939174e-01
 8.647187013495826191e-01
 8.818883201222968982e-01
 8.990578615588233902e-01
 9.162273179761251107e-01
 9.329764282047064983e-01
 9.492502384519582170e-01
 9.655240461379388517e-01
 9.817978511309107814e-01
 9.980716532899346349e-01
 1.014345452463996766e+00
 8.412515277152820409e-03
 2.527964121295659186e-02
 4.214675864269682576e-02
 5.901386716306861874e-02
 7.588096634486182768e-02
 9.274805573084568544e-02
 1.098377393728431628e-01
 1.271307233014095650e-01
 1.444237055203972109e-01
 1.617166859805028167e-01
 1.790096646305091022e-01
 1.963026414171920309e-01
 2.136011342674908886e-01
 2.308922081357909495e-01
 2.481832819062726181e-01
 2.654743555773468877e-01
 2.827654291473846171e-01
 3.000565026147243297e-01
 3.172936312298992867e-01
 3.344696375957022516e-01
 3.516456441567752944e-01
 3.688216509149543909e-01
 3.859976578720881735e-01
 4.031736650300558611e-01
 4.201900437305731706e-01
 4.370534963836015252e-01
 4.539169493007210732e-01
 4.707804024865731574e-01
 4.876438559459308486e-01
 5.045073096836739657e-01
 5.212961298038618629e-01
 5.380523211001227990e-01
 5.548084874347144480e-01
 5.715646270929929385e-01
 5.883207381996239382e-01
 6.050768186992555586e-01
 6.219452381642480709e-01
 6.389241597175454590e-01
 6.559030472024894864e-01
 6.728818980712412134e-01
 6.898607095154272173e-01
 7.068394784319080859e-01
 7.238909108016130523e-01
 7.410157940956793032e-01
 7.581406225669297116e-01
 7.752653914191092177e-01
 7.923900952796109065e-01
 8.095147281103656223e-01
 8.266387314457823710e-01
 8.437457909016277124e-01
 8.608528024896318076e-01
 8.779597620991425044e-01
 8.950666651348968550e-01
 9.121735064435858575e-01
 9.288025380674633791e-01
 9.449243509169971134e-01
 9.610461440330502203e-01
 9.771679159862821651e-01
 9.932896652058006426e-01
 1.009411389961456740e+00
 8.362190345330488411e-03
 2.512866634240609395e-02
 4.189513372740194530e-02
 5.866159208939900754e-02
 7.542804099091360293e-02
 9.219447996571512871e-02
 1.091931194935116534e-01
 1.264046488042595284e-01
 1.436161763871456609e-01
 1.608277021920796190e-01
 1.780392261670149523e-01
 1.952507482578548503e-01
 2.124707852904451078e-01
 2.296863908178689018e-01
 2.469019962465041629e-01
 2.641176015747341843e-01
 2.813332068009111175e-01
 2.985488119233462578e-01
 3.157025430828037660e-01
 3.327872155331006443e-01
 3.498718881809440573e-01
 3.669565610281979584e-01
 3.840412340767454524e-01
 4.011259073285036725e-01
 4.180435955580817375e-01
 4.348010035103748172e-01
 4.515584117307369638e-01
 4.683158202239188217e-01
 4.850732289947981002e-01
 5.018306380483599227e-01
 5.185267662088631768e-01
 5.352038011745001711e-01
 5.518808106559578430e-01
 5.685577928870977349e-01
 5.852347459347495562e-01
 6.019116676784712627e-01
 6.187153007698951157e-01
 6.356437919165021100e-01
 6.525722483137984531e-01
 6.695006673422135846e-01
 6.864290461121673736e-01
 7.033573814281800507e-01
 7.203648372010182932e-01
 7.374522047074718589e-01
 7.545395161893230229e-01
 7.716267667037083333e-01
 7.887139507087150836e-01
 8.058010619696847066e-01
 8.228673927041234570e-01
 8.398964188969438860e-01
 8.569253958837040885e-01
 8.739543193906897933e-01
 8.909831846345031003e-01
 9.080119862437165956e-01
 9.245355267499313356e-01
 9.405240402121785026e-01
 9.565125332238592071e-01
 9.725010042806756516e-01
 9.884894517271070047e-01
 1.004477873736953075e+00
 8.311865403673141667e-03
 2.497769144096495184e-02
 4.164350875816645592e-02
 5.830931693655162784e-02
 7.497511553014929442e-02
 9.164090406349113815e-02
 1.085484995801253710e-01
 1.256785742676505835e-01
 1.428086472087364833e-01
 1.599387183524882405e-01
 1.770687876460123045e-01
 1.941988550343224096e-01
 2.113404363077633075e-01
 2.284805734938359922e-01
 2.456207105801328228e-01
 2.627608475650196618e-01
 2.799009844468137720e-01
 2.970411212238100451e-01
 3.141114549686752078e-01
 3.311047935056879443e-01
 3.480981322425621416e-01
 3.650914711811897861e-01
 3.820848103234985582e-01
 3.990781496714290166e-01
 4.158971474266350832e-01
 4.325485106809812685e-01
 4.491998742074657103e-01
 4.658512380109465223e-01
 4.825026020964194862e-01
 4.991539664689765843e-01
 5.157574010857766122e-01
 5.323552795706928409e-01
 5.489531320328762121e-01
 5.655509566526809584e-01
 5.821487514367486016e-01
 5.987465141967674986e-01
 6.154853614111961413e-01
 6.323634219737781503e-01
 6.492414470866058052e-01
 6.661194340558145299e-01
 6.829973799074567919e-01
 6.998752813501958325e-01
 7.168387605409952679e-01
 7.338886119623883042e-01
 7.509384061203850935e-01
 7.679881379197224245e-01
 7.850378016421527549e-01
 8.020873908482890613e-01
 8.190960500116041265e-01
 8.360470425194025390e-01
 8.529979844289808932e-01
 8.699488712950373959e-01
 8.868996981358487908e-01
 9.038504593498977169e-01
 9.202685122158851261e-01
 9.361237259523174092e-01
 9.519789184825374617e-01
 9.678340882221850849e-01
 9.836892334249798253e-01
 9.995443521616290683e-01
 8.270869305198382329e-03
 2.484395267922655595e-02
 4.141703267236504504e-02
 5.799010916474733879e-02
 7.456318203077291762e-02
 9.113625113875983841e-02
 1.079487111643167574e-01
 1.249920878837894045e-01
 1.420354633852437543e-01
 1.590788376352602340e-01
 1.761222105991831210e-01
 1.931655822410675294e-01
 2.102229976217537544e-01
 2.272825248336416415e-01
 2.443420520816133035e-01
 2.614015793662349818e-01
 2.784611066880840480e-01
 2.955206340477438687e-01
 3.125031158623633454e-01
 3.294024415624242641e-01
 3.463017675004498863e-01
 3.632010936787659072e-01
 3.801004200997066818e-01
 3.969997467656488088e-01
 4.137190377468465408e-01
 4.302679464049589120e-01
 4.468168550474171941e-01
 4.633657636738800489e-01
 4.799146722840154644e-01
 4.964635808774544024e-01
 5.129802209403858670e-01
 5.295020038208444468e-01
 5.460237627609585420e-01
 5.625454961362036377e-01
 5.790672021716297690e-01
 5.955888789241097214e-01
 6.122620958440248007e-01
 6.290888839164191504e-01
 6.459156330808032420e-01
 6.627423402791233764e-01
 6.795690021242434264e-01
 6.963956148544376834e-01
 7.133133402194116179e-01
 7.303187299154199064e-01
 7.473240665616057710e-01
 7.643293455229253075e-01
 7.813345616082130185e-01
 7.983397089841501870e-01
 8.152823832303025542e-01
 8.321445981118489321e-01
 8.490067707912770656e-01
 8.658688977023326627e-01
 8.827309748654111887e-01
 8.995929978257146686e-01
 9.158987418301571815e-01
 9.316376438612888888e-01
 9.473764935822454047e-01
 9.631152860149700956e-01
 9.788540155292361211e-01
 9.945926757318945821e-01
 8.228318368614829723e-03
 2.471629984368208660e-02
 4.120427790194867990e-02
 5.769225242162371453e-02
 7.418022327505841007e-02
 9.066819032838960291e-02
 1.073921076944380076e-01
 1.243434950572706310e-01
 1.412948811875582855e-01
 1.582462660512836683e-01
 1.751976496131640859e-01
 1.921490318365978722e-01
 2.091175688752500983e-01
 2.260913191669135514e-01
 2.430650694950684532e-01
 2.600388198602873180e-01
 2.770125702631551223e-01
 2.939863207042711646e-01
 3.108775663420157431e-01
 3.276801904181964598e-01
 3.444828147353332648e-01
 3.612854392957813854e-01
 3.780880641019344623e-01
 3.948906891562036781e-01
 4.115122162147467622e-01
 4.279623086983061486e-01
 4.444124011659655316e-01
 4.608624936173915110e-01
 4.773125860522306474e-01
 4.937626784701271698e-01
 5.101932696956241742e-01
 5.266419443895680175e-01
 5.430905946550224073e-01
 5.595392188200488670e-01
 5.759878150565503896e-01
 5.924363813616462249e-01
 6.090470148303014364e-01
 6.258217592548130925e-01
 6.425964639541951184e-01
 6.593711257799225178e-01
 6.761457412417085644e-01
 6.929203064598495887e-01
 7.097862576344640129e-01
 7.267400995222205173e-01
 7.436938870954770131e-01
 7.606476155639922965e-01
 7.776012795572009306e-01
 7.945548730335076915e-01
 8.114219925846412051e-01
 8.281844189830320779e-01
 8.449468018573246253e-01
 8.617091374816825411e-01
 8.784714216925318953e-01
 8.952336498222619454e-01
 9.114402769043948860e-01
 9.270806547971859324e-01
 9.427209783120209519e-01
 9.583612421909235568e-01
 9.740014404753490895e-01
 9.896415663856924505e-01
 8.185767428177751978e-03
 2.458864699616982938e-02
 4.099152311087509576e-02
 5.739439564853678066e-02
 7.379726447941307999e-02
 9.020012946741115534e-02
 1.068355041993896554e-01
 1.236949022006199606e-01
 1.405542989545180144e-01
 1.574136944264530324e-01
 1.742730885805031937e-01
 1.911324813793885691e-01
 2.080121401311914586e-01
 2.249001135028631249e-01
 2.417880869114368836e-01
 2.586760603574980721e-01
 2.755640338416381341e-01
 2.924520073644687468e-01
 3.092520168650490509e-01
 3.259579393203802522e-01
 3.426638620197105523e-01
 3.593697849654366450e-01
 3.760757081599982454e-01
 3.927816316058581059e-01
 4.093053946805836896e-01
 4.256566709894381018e-01
 4.420079472821610844e-01
 4.583592235583969776e-01
 4.747104998177930080e-01
 4.910617760599771398e-01
 5.074063169868665568e-01
 5.237818833553866682e-01
 5.401574247927309891e-01
 5.565329395777243171e-01
 5.729084258270167318e-01
 5.892838814755470001e-01
 6.058319315678428740e-01
 6.225546321316915988e-01
 6.392772921287471766e-01
 6.559999083165118927e-01
 6.727224770974553625e-01
 6.894449944690570486e-01
 7.062591717160495719e-01
 7.231614654572036116e-01
 7.400637035763397709e-01
 7.569658811212087723e-01
 7.738679925337601517e-01
 7.907700315544959890e-01
 8.075615977154072533e-01
 8.242242351609979645e-01
 8.408868277002174985e-01
 8.575493714381463572e-01
 8.742118620160121978e-01
 8.908742945400310864e-01
 9.069818049070770272e-01
 9.225236578284677913e-01
 9.380654541858906015e-01
 9.536071884204619931e-01
 9.691488542202451040e-01
 9.846904443882219526e-01
 8.151274598509578723e-03
 2.447506512613059279e-02
 4.079885475538485434e-02
 5.712264346463862691e-02
 7.344643123155786268e-02
 8.977021803307960734e-02
 1.063142059304659909e-01
 1.230775611877179543e-01
 1.398409159676251012e-01
 1.566042702588299473e-01
 1.733676240496122845e-01
 1.901309773278734572e-01
 2.069156626716726066e-01
 2.237130506907024086e-01
 2.405104388693324879e-01
 2.573078272099831865e-01
 2.741052157151182000e-01
 2.909026043872585676e-01
 3.076072918991040739e-01
 3.242150368659499904e-01
 3.408227821108808508e-01
 3.574305276369902917e-01
 3.740382734474147486e-01
 3.906460195453394513e-01
 4.070723146371071910e-01
 4.233288783657202514e-01
 4.395854415857688990e-01
 4.558420042844136821e-01
 4.720985664483910993e-01
 4.883551280639712444e-01
 5.046194233210482549e-01
 5.209244773528598493e-01
 5.372295080108210330e-01
 5.535345137188301123e-01
 5.698394927558581013e-01
 5.861444432388278614e-01
 6.026288900160335915e-01
 6.192967597442625705e-01
 6.359645882774546122e-01
 6.526323722911698821e-01
 6.693001080933778102e-01
 6.859677915721736907e-01
 7.027259253112863036e-01
 7.195677948541858715e-01
 7.364096153043162563e-01