<VTKFile type="UnstructuredGrid" byte_order="BigEndian">
<UnstructuredGrid><Piece NumberOfPoints="1891" NumberOfCells="1800">
<Points>
 <DataArray type="Float32" NumberOfComponents="3" format="ascii">
 0.000000000000000000e+00 0.000000000000000000e+00 0.000000000000000000e+00
 1.765149086713790894e-02 1.416298211552202702e-03 0.000000000000000000e+00
 3.530298173427581787e-02 2.832596423104405403e-03 0.000000000000000000e+00
 5.295447260141372681e-02 4.248894751071929932e-03 0.000000000000000000e+00
 7.060596346855163574e-02 5.665192846208810806e-03 0.000000000000000000e+00
 8.825745433568954468e-02 7.081490941345691681e-03 0.000000000000000000e+00
 1.059089452028274536e-01 8.497789502143859863e-03 0.000000000000000000e+00
 1.235604286193847656e-01 9.914087131619453430e-03 0.000000000000000000e+00
 1.412119269371032715e-01 1.133038569241762161e-02 0.000000000000000000e+00
 1.588634103536605835e-01 1.274668332189321518e-02 0.000000000000000000e+00
 1.765149086713790894e-01 1.416298188269138336e-02 0.000000000000000000e+00
 1.941663920879364014e-01 1.557928044348955154e-02 0.000000000000000000e+00
 2.118178904056549072e-01 1.699557900428771973e-02 0.000000000000000000e+00
 2.294693738222122192e-01 1.841187663376331329e-02 0.000000000000000000e+00
 2.471208572387695312e-01 1.982817426323890686e-02 0.000000000000000000e+00
 2.647723555564880371e-01 2.124447375535964966e-02 0.000000000000000000e+00
 2.824238538742065430e-01 2.266077138483524323e-02 0.000000000000000000e+00
 3.000753223896026611e-01 2.407706901431083679e-02 0.000000000000000000e+00
 3.177268207073211670e-01 2.549336664378643036e-02 0.000000000000000000e+00
 3.353783190250396729e-01 2.690966613590717316e-02 0.000000000000000000e+00
 3.530298173427581787e-01 2.832596376538276672e-02 0.000000000000000000e+00
 3.706812858581542969e-01 2.974226139485836029e-02 0.000000000000000000e+00
 3.883327841758728027e-01 3.115856088697910309e-02 0.000000000000000000e+00
 4.059842824935913086e-01 3.257485851645469666e-02 0.000000000000000000e+00
 4.236357808113098145e-01 3.399115800857543945e-02 0.000000000000000000e+00
 4.412872493267059326e-01 3.540745377540588379e-02 0.000000000000000000e+00
 4.589387476444244385e-01 3.682375326752662659e-02 0.000000000000000000e+00
 4.765902459621429443e-01 3.824005275964736938e-02 0.000000000000000000e+00
 4.942417144775390625e-01 3.965634852647781372e-02 0.000000000000000000e+00
 5.117398500442504883e-01 4.216971248388290405e-02 0.000000000000000000e+00
 5.291031002998352051e-01 4.564810916781425476e-02 0.000000000000000000e+00
 5.464662909507751465e-01 4.912650585174560547e-02 0.000000000000000000e+00
 5.638295412063598633e-01 5.260490253567695618e-02 0.000000000000000000e+00
 5.811927914619445801e-01 5.608329921960830688e-02 0.000000000000000000e+00
 5.985559821128845215e-01 5.956169217824935913e-02 0.000000000000000000e+00
 6.159192323684692383e-01 6.304009258747100830e-02 0.000000000000000000e+00
 6.332824826240539551e-01 6.651848554611206055e-02 0.000000000000000000e+00
 6.506456732749938965e-01 6.999688595533370972e-02 0.000000000000000000e+00
 6.680089235305786133e-01 7.347527891397476196e-02 0.000000000000000000e+00
 6.853721737861633301e-01 7.695367932319641113e-02 0.000000000000000000e+00
 7.027353644371032715e-01 8.043207228183746338e-02 0.000000000000000000e+00
 7.200986146926879883e-01 8.391046524047851562e-02 0.000000000000000000e+00
 7.374618649482727051e-01 8.738886564970016479e-02 0.000000000000000000e+00
 7.548250555992126465e-01 9.086725860834121704e-02 0.000000000000000000e+00
 7.721883058547973633e-01 9.434565901756286621e-02 0.000000000000000000e+00
 7.895515561103820801e-01 9.782405197620391846e-02 0.000000000000000000e+00
 8.069147467613220215e-01 1.013024523854255676e-01 0.000000000000000000e+00
 8.242779970169067383e-01 1.047808453440666199e-01 0.000000000000000000e+00
 8.416412472724914551e-01 1.082592457532882690e-01 0.000000000000000000e+00
 8.590044379234313965e-01 1.117376387119293213e-01 0.000000000000000000e+00
 8.763676881790161133e-01 1.152160391211509705e-01 0.000000000000000000e+00
 8.937309384346008301e-01 1.186944320797920227e-01 0.000000000000000000e+00
 9.110941290855407715e-01 1.221728324890136719e-01 0.000000000000000000e+00
 9.284573793411254883e-01 1.256512254476547241e-01 0.000000000000000000e+00
 9.458206295967102051e-01 1.291296184062957764e-01 0.000000000000000000e+00
 9.631838202476501465e-01 1.326080113649368286e-01 0.000000000000000000e+00
 9.805470705032348633e-01 1.360864192247390747e-01 0.000000000000000000e+00
 9.979103207588195801e-01 1.395648121833801270e-01 0.000000000000000000e+00
 1.015273571014404297e+00 1.430432051420211792e-01 0.000000000000000000e+00
 1.032636761665344238e+00 1.465215981006622314e-01 0.000000000000000000e+00
 1.049999952316284180e+00 1.500000059604644775e-01 0.000000000000000000e+00
 0.000000000000000000e+00 6.666666828095912933e-03 0.000000000000000000e+00
 1.750070042908191681e-02 7.907942868769168854e-03 0.000000000000000000e+00
 3.500140085816383362e-02 9.149218909442424774e-03 0.000000000000000000e+00
 5.250209942460060120e-02 1.039049495011568069e-02 0.000000000000000000e+00
 7.000280171632766724e-02 1.163177099078893661e-02 0.000000000000000000e+00
 8.750350028276443481e-02 1.287304703146219254e-02 0.000000000000000000e+00
 1.050041988492012024e-01 1.411432307213544846e-02 0.000000000000000000e+00
 1.226017326116561890e-01 1.547975838184356689e-02 0.000000000000000000e+00
 1.401992738246917725e-01 1.684519462287425995e-02 0.000000000000000000e+00
 1.577968001365661621e-01 1.821062900125980377e-02 0.000000000000000000e+00
 1.753943413496017456e-01 1.957606524229049683e-02 0.000000000000000000e+00
 1.929918676614761353e-01 2.094149962067604065e-02 0.000000000000000000e+00
 2.105894088745117188e-01 2.230693586170673370e-02 0.000000000000000000e+00
 2.281837463378906250e-01 2.367954887449741364e-02 0.000000000000000000e+00
 2.457780838012695312e-01 2.505216374993324280e-02 0.000000000000000000e+00
 2.633724212646484375e-01 2.642477862536907196e-02 0.000000000000000000e+00
 2.809667587280273438e-01 2.779739163815975189e-02 0.000000000000000000e+00
 2.985610961914062500e-01 2.917000651359558105e-02 0.000000000000000000e+00
 3.161554336547851562e-01 3.054261952638626099e-02 0.000000000000000000e+00
 3.337362706661224365e-01 3.192293643951416016e-02 0.000000000000000000e+00
 3.513170778751373291e-01 3.330325335264205933e-02 0.000000000000000000e+00
 3.688978850841522217e-01 3.468357026576995850e-02 0.000000000000000000e+00
 3.864786922931671143e-01 3.606388717889785767e-02 0.000000000000000000e+00
 4.040594995021820068e-01 3.744420409202575684e-02 0.000000000000000000e+00
 4.216403067111968994e-01 3.882452100515365601e-02 0.000000000000000000e+00
 4.391175806522369385e-01 4.072411358356475830e-02 0.000000000000000000e+00
 4.565948545932769775e-01 4.262370243668556213e-02 0.000000000000000000e+00
 4.740720987319946289e-01 4.452329128980636597e-02 0.000000000000000000e+00
 4.915493726730346680e-01 4.642288014292716980e-02 0.000000000000000000e+00
 5.090266466140747070e-01 4.832246899604797363e-02 0.000000000000000000e+00
 5.265039205551147461e-01 5.022205784916877747e-02 0.000000000000000000e+00
 5.437867045402526855e-01 5.357829853892326355e-02 0.000000000000000000e+00
 5.610695481300354004e-01 5.693453550338745117e-02 0.000000000000000000e+00
 5.783523321151733398e-01 6.029077619314193726e-02 0.000000000000000000e+00
 5.956351757049560547e-01 6.364701688289642334e-02 0.000000000000000000e+00
 6.129179596900939941e-01 6.700325757265090942e-02 0.000000000000000000e+00
 6.302008032798767090e-01 7.035949081182479858e-02 0.000000000000000000e+00
 6.475098133087158203e-01 7.374143600463867188e-02 0.000000000000000000e+00
 6.648188829421997070e-01 7.712338864803314209e-02 0.000000000000000000e+00
 6.821279525756835938e-01 8.050533384084701538e-02 0.000000000000000000e+00
 6.994370222091674805e-01 8.388727903366088867e-02 0.000000000000000000e+00
 7.167460918426513672e-01 8.726922422647476196e-02 0.000000000000000000e+00
 7.340551614761352539e-01 9.065116941928863525e-02 0.000000000000000000e+00
 7.513862252235412598e-01 9.402760863304138184e-02 0.000000000000000000e+00
 7.687173485755920410e-01 9.740404039621353149e-02 0.000000000000000000e+00
 7.860484123229980469e-01 1.007804796099662781e-01 0.000000000000000000e+00
 8.033795356750488281e-01 1.041569188237190247e-01 0.000000000000000000e+00
 8.207105994224548340e-01 1.075333580374717712e-01 0.000000000000000000e+00
 8.380417227745056152e-01 1.109097898006439209e-01 0.000000000000000000e+00
 8.553910851478576660e-01 1.142871752381324768e-01 0.000000000000000000e+00
 8.727404475212097168e-01 1.176645606756210327e-01 0.000000000000000000e+00
 8.900898098945617676e-01 1.210419461131095886e-01 0.000000000000000000e+00
 9.074391722679138184e-01 1.244193241000175476e-01 0.000000000000000000e+00
 9.247885346412658691e-01 1.277967095375061035e-01 0.000000000000000000e+00
 9.421378970146179199e-01 1.311740875244140625e-01 0.000000000000000000e+00
 9.592815637588500977e-01 1.345895230770111084e-01 0.000000000000000000e+00
 9.764252901077270508e-01 1.380049586296081543e-01 0.000000000000000000e+00
 9.935689568519592285e-01 1.414203792810440063e-01 0.000000000000000000e+00
 1.010712623596191406e+00 1.448358148336410522e-01 0.000000000000000000e+00
 1.027856349945068359e+00 1.482512354850769043e-01 0.000000000000000000e+00
 1.044999957084655762e+00 1.516666710376739502e-01 0.000000000000000000e+00
 0.000000000000000000e+00 1.333333365619182587e-02 0.000000000000000000e+00
 1.734990999102592468e-02 1.439958717674016953e-02 0.000000000000000000e+00
 3.469981998205184937e-02 1.546584162861108780e-02 0.000000000000000000e+00
 5.204972997307777405e-02 1.653209514915943146e-02 0.000000000000000000e+00
 6.939963996410369873e-02 1.759834960103034973e-02 0.000000000000000000e+00
 8.674954622983932495e-02 1.866460405290126801e-02 0.000000000000000000e+00
[...]
<CellData>
 <DataArray Name="pos.x" type="Float32" NumberOfComponents="1" format="ascii">
 8.751707589743713128e-03
 2.632698871820822809e-02
 4.390222727468304220e-02
 6.147741983002717042e-02
 7.905256257665221886e-02
 9.662765127483337324e-02
 1.142570151654083710e-01
 1.318814451715884795e-01
 1.495058738036255663e-01
 1.671303010267439770e-01
 1.847547268049861691e-01
 2.023791511011588662e-01
 2.200048234885404186e-01
 2.376276816007422688e-01
 2.552505388694105704e-01
 2.728733952757453896e-01
 2.904962508003864352e-01
 3.081191054233834992e-01
 3.257411774849577335e-01
 3.433573067035559090e-01
 3.609734356764841001e-01
 3.785895643993207327e-01
 3.962056928675460887e-01
 4.138218210765182703e-01
 4.315587511781026619e-01
 4.491111184432100556e-01
 4.666654002342708329e-01
 4.842211726317612874e-01
 5.015118401010897342e-01
 5.186998522898418340e-01
 5.364362588291721190e-01
 5.537587120900552273e-01
 5.710811403702616973e-01
 5.884035419802398081e-01
 6.057259150745225584e-01
 6.230482576333826739e-01
 6.403833103953695538e-01
 6.577189645569520016e-01
 6.750545987669450687e-01
 6.923902117890509134e-01
 7.097258022826657964e-01
 7.270613687916345214e-01
 7.443984462669697155e-01
 7.617447775380293828e-01
 7.790910658844611980e-01
 7.964373078869974032e-01
 8.137834997533441861e-01
 8.311296372657694942e-01
 8.484788010828467897e-01
 8.658338597436738837e-01
 8.831888401930273469e-01
 9.005437347892590871e-01
 9.178985348617103579e-01
 9.352532305315270911e-01
 9.526005764648832752e-01
 9.698542574638926439e-01
 9.871079416060720702e-01
 1.004361628957793462e+00
 1.021615319587341419e+00
 1.038869013564935440e+00
 8.676309084165346672e-03
 2.610079266717126728e-02
 4.352523289469073520e-02
 6.094962624138574453e-02
 7.837396878906525977e-02
 9.579825617039462726e-02
 1.133252918743468673e-01
 1.308957653058717974e-01
 1.484662373528682078e-01
 1.660367079801722545e-01
 1.836071771514198592e-01
 2.011776448289922803e-01
 2.187477661290344599e-01
 2.363134740736225203e-01
 2.538791811677812427e-01
 2.714448873924884542e-01
 2.890105927281406695e-01
 3.065762971545507032e-01
 3.241344573226346837e-01
 3.416799055775061045e-01
 3.592253535843004109e-01
 3.767708013385317467e-01
 3.943162488356167783e-01
 4.118616960708548214e-01
 4.293478167518324229e-01
 4.467747786215106043e-01
 4.642017405139789443e-01
 4.816287024296926345e-01
 4.990556643691096417e-01
 5.164826263326911526e-01
 5.337967916088692810e-01
 5.510388172912904503e-01
 5.682808175001162754e-01
 5.855227904978796971e-01
 6.027647343853826944e-01
 6.200066470825044140e-01
 6.372744415750568603e-01
 6.545559241838768694e-01
 6.718373864954925168e-01
 6.891188272432798856e-01
 7.064002450529992538e-01
 7.236816384310779116e-01
 7.409755190744173881e-01
 7.582897019094997360e-01
 7.756038410032153330e-01
 7.929179328458511034e-01
 8.102319735418653801e-01
 8.275459587554333529e-01
 8.448720887280211089e-01
 8.622132669948694428e-01
 8.795543654046401594e-01
 8.968953760947740994e-01
 9.142362901355916005e-01
 9.315770973427752732e-01
 9.488081412875118970e-01
 9.658422777159521022e-01
 9.828764173849252606e-01
 9.999105603639557582e-01
 1.016944706724504321e+00
 1.033978856540093361e+00
 8.600910517858006282e-03
 2.587459641952989317e-02
 4.314823816039153187e-02
 6.042183211527556164e-02
 7.769537425106459727e-02
 9.496886006764496124e-02
 1.123935685528532347e-01
 1.299100854071496003e-01
 1.474266008664153471e-01
 1.649431148950898929e-01
 1.824596274563987097e-01
 1.999761385122905410e-01
 2.174907087387145388e-01
 2.349992665135720304e-01
 2.525078234310234038e-01
 2.700163794718102861e-01
 2.875249346160944630e-01
 3.050334888434367286e-01
 3.225277371430719242e-01
 3.400025044331305146e-01
 3.574772714726677791e-01
 3.749520382571465693e-01
 3.924268047819037264e-01
 4.099015710421653469e-01
 4.273020449145194521e-01
 4.446283887159568349e-01
 4.619547325405095606e-01
 4.792810763886317660e-01
 4.966074202607976273e-01
 5.139337641574867055e-01
 5.311573230284755143e-01
 5.483189209975416478e-01
 5.654804929858482376e-01
 5.826420372061564823e-01
 5.998035517034995268e-01
 6.169650343349935007e-01
 6.341655715853624642e-01
 6.513928825483477070e-01
 6.686201728598509808e-01
 6.858474412219794925e-01
 7.030746862257113428e-01
 7.203019063388601539e-01
 7.375525896965500205e-01
 7.548346239028151938e-01
 7.721166135291945842e-01
 7.893985549723900874e-01
 8.066804442300313793e-01
 8.239622768438726874e-01
 8.412653728176409107e-01
 8.585926703367853241e-01
 8.759198863058640372e-01
 8.932470126333051930e-01
 9.105740401205202339e-01
 9.279009582657077315e-01
 9.450157075692727782e-01
 9.618302995444338865e-01
 9.786448948621621069e-01
 9.954594935952091328e-01
 1.012274095818387343e+00
 1.029088701608809497e+00
 8.538336411849018967e-03
 2.567289848195506222e-02
 4.280743797316916011e-02
 5.994195340714667669e-02
 7.707644317360486108e-02
 9.421090551526761780e-02
 1.115234678020646797e-01
 1.289780407293716902e-01
 1.464326111525709739e-01
 1.638871789932471457e-01
 1.813417441696743015e-01
 1.987963065966439069e-01
 2.162527754178731609e-01
 2.337005096905871993e-01
 2.511482432904167950e-01
 2.685959762028228837e-01
 2.860437084128493734e-01
 3.034914399050942513e-01
 3.209181999763484061e-01
 3.383186129685765153e-01
 3.557190258617562995e-01
 3.731194386541992758e-01
 3.905198513441857089e-01
 4.079202639299515654e-01
 4.252323205133017869e-01
 4.424593215684586855e-01
 4.596863224553867089e-01
 4.769133231704014708e-01
 4.941403237097092838e-01
 5.113673240694013300e-01
 5.285038716723891028e-01
 5.455863133058612702e-01
 5.626687321587008350e-01
 5.797511267290018644e-01
 5.968334953798838383e-01
 6.139158363239212157e-01
 6.310467528012322358e-01
 6.482205242934556688e-01
 6.653942705895817822e-01
 6.825679899960417352e-01
 6.997416806639812359e-01
 7.169153405710921856e-01
 7.341242913269366843e-01
 7.513738994351205625e-01
 7.686234589627906066e-01
 7.858729658602513490e-01
 8.031224156147420690e-01
 8.203718031824860368e-01
 8.376487502455621792e-01
 8.549432845243730705e-01
 8.722377651333461657e-01
 8.895321873885684294e-01
 9.068265460447793025e-01
 9.241208352086961453e-01
 9.411027509747244002e-01
 9.577177832095710164e-01
 9.743328156526878114e-01
 9.909478483131419768e-01
 1.007562881200627869e+00
 1.024177914325345551e+00
 8.474305252007598502e-03
 2.548080475431257347e-02
 4.248728132001441254e-02
 5.949373343516876217e-02
 7.650015944959567826e-02
 9.350655756120175577e-02
 1.107201843345344966e-01
 1.281049018638952541e-01
 1.454896168650893773e-01
 1.628743292585804192e-01
 1.802590389614604771e-01
 1.976437458872705999e-01
 2.150330336829144873e-01
 2.324162493718875122e-01
 2.497994643819032023e-01
 2.671826786982305357e-01
 2.845658923057083900e-01
 3.019491051887291388e-01
 3.193045838088824362e-01
 3.366269449265454905e-01
 3.539493059440979028e-01
 3.712716668598307068e-01
 3.885940276719928033e-01
 4.059163883787919591e-01
 4.231403983714336903e-01
 4.402693586591548414e-01
 4.573983187762457048e-01
 4.745272787189472874e-01
 4.916562384833766952e-01
 5.087851980655598849e-01
 5.258336498845157525e-01
 5.428380943542323589e-01
 5.598425155974761092e-01
 5.768469120701148478e-01
 5.938512820880643694e-01
 6.108556238110366410e-01
 6.279211735117028459e-01
 6.450421695410502032e-01
 6.621631399134091378e-01
 6.792840828914422646e-01
 6.964049965773280171e-01
 7.135258788937933749e-01
 7.306921014559080163e-01
 7.479090825178696944e-01
 7.651260140313935754e-01
 7.823428918345253225e-01
 7.995597112857788513e-01
 8.167764671929591547e-01
 8.340109965716629992e-01
 8.512532054338680654e-01
 8.684953593350280832e-01
 8.857374534330588745e-01
 9.029794822998175041e-01
 9.202214398297559050e-01
 9.370879212264620062e-01
 9.535238320463146344e-01
 9.699597430813443610e-01
 9.863956543410273836e-01
 1.002831565835570204e+00
 1.019267477575652947e+00
 8.410274062279532795e-03
 2.528871093122101940e-02
 4.216712449728039769e-02
 5.904551320976148682e-02
 7.592387537725811542e-02
 9.280220915132421367e-02
 1.099169008169997019e-01
 1.272317629423739271e-01
 1.445466225151741391e-01
 1.618614794547236224e-01
 1.791763336769084392e-01
 1.964911850939939919e-01
 2.138132919202337945e-01
 2.311319890233695662e-01
 2.484506854413947863e-01
 2.657693811593792588e-01
 2.830880761619567476e-01
 3.004067704333062139e-01
 3.176909676331861054e-01
 3.349352768757358212e-01
 3.521795860171028081e-01
 3.694238950555439049e-01
 3.866682039892858080e-01
 4.039125128165018119e-01
 4.210484762108429035e-01
 4.380793957298239061e-01
 4.551103150757233040e-01
 4.721412342446975607e-01
 4.891721532327861222e-01
 5.062030720359141922e-01
 5.231634268035972868e-01
 5.400898739852662001e-01
 5.570162974818055890e-01
 5.739426957053155309e-01
 5.908690669227191217e-01
 6.077954092387500840e-01
 6.247955927804669241e-01
 6.418638132255385376e-01
 6.589320075406123189e-01
 6.760001739430860912e-01
 6.930683104844803655e-01
 7.101364150305835565e-01
 7.272599090968877578e-01
 7.444442628838305875e-01
 7.616285661273748397e-01
 7.788128145493213861e-01
 7.959970033746340823e-01
 8.131811272571708438e-01
 8.303732394464568012e-01
 8.475631225428562621e-01
 8.647529493429402248e-01
 8.819427148393830240e-01
 8.991324134128799717e-01
 9.163220387357037255e-01
 9.330730915292219096e-01
 9.493298809386913062e-01
 9.655866705705473674e-01
 9.818434604348131867e-01
 9.981002505421104898e-01
 1.014357040903764107e+00
 8.357718361462485035e-03
 2.511856235560149669e-02
 4.187939543468230386e-02
 5.864021703423950849e-02
 7.540102655020389233e-02
 9.216182333536650229e-02
 1.091710472628147771e-01
 1.264095758675168324e-01
 1.436481015682550821e-01
 1.608866242673782365e-01
 1.781251438628075612e-01
 1.953636602477824558e-01
 2.126142710700160143e-01
 2.298640500598551073e-01
 2.471138285038958216e-01
 2.643636063904334366e-01
 2.816133837074343838e-01
 2.988631604425103228e-01
 3.160723241241999992e-01
 3.332354533226718485e-01
 3.503985825131119003e-01
 3.675617116953814878e-01
 3.847248408693494937e-01
 4.018879700348691464e-01
 4.189338014519993214e-01
 4.358682036054070674e-01
 4.528026053079640123e-01
 4.697370065486378143e-01
 4.866714073160329779e-01
 5.036058075984052307e-01
 5.204816017575173426e-01
 5.373316142072744883e-01
 5.541816049995951232e-01
 5.710315727246069173e-01
 5.878815158473347235e-01
 6.047314326935133710e-01
 6.216647112572918354e-01
 6.386803277497458131e-01
 6.556959139817117865e-01
 6.727114677816145027e-01
 6.897269867649920005e-01
 7.067424683077924152e-01
 7.238232789831082759e-01
 7.409709851858337082e-01
 7.581186416824258201e-01
 7.752662442695371636e-01
 7.924137882561483881e-01
 8.095612683906735496e-01
 8.267046768380463817e-01
 8.438270786532355849e-01
 8.609494403806663421e-01
 8.780717587684109260e-01
 8.951940302028922325e-01
 9.123162506573926356e-01
 9.289404161760973500e-01
 9.450376632356582984e-01
 9.611348963421374458e-01
 9.772321145653133367e-01
 9.933293168904708814e-01
 1.009426502208450094e+00
 8.303938805243197066e-03
 2.495722358346600875e-02
 4.161049729978872486e-02
 5.826375937823294326e-02
 7.491700920212705783e-02
 9.157024611044728424e-02
 1.084843021215161768e-01
 1.256400348644939324e-01
 1.427957646710774908e-01
 1.599514914419873923e-01
 1.771072150734193940e-01
 1.942629354567799727e-01
 2.114354874338734702e-01
 2.286119302824782817e-01
 2.457883725797632146e-01
 2.629648143138518801e-01
 2.801412554725217219e-01
 2.973176960432023508e-01
 3.144480330862901019e-01
 3.315268376936724160e-01
 3.486056422929277865e-01
 3.656844468839189344e-01
 3.827632514665113561e-01
 3.998420560405582247e-01
 4.167982408194318422e-01
 4.336376809075678795e-01
 4.504771205382857024e-01
 4.673165597003398064e-01
 4.841559983820751811e-01
 5.009954365714770486e-01
 5.177862028890984902e-01
 5.345612674872390890e-01
 5.513363100071750900e-01
 5.681113289997361537e-01
 5.848863228860847752e-01
 6.016612899428818162e-01
 6.185309344476997984e-01
 6.354942247703085911e-01
 6.524574842502544048e-01
 6.694207106569903809e-01
 6.863839015395976073e-01
 7.033470541988240399e-01
 7.203813342846590029e-01
 7.374883204474516063e-01
 7.545952558439793512e-01
 7.717021361455839168e-01
 7.888089565171194639e-01
 8.059157115406482275e-01
 8.229973118985604019e-01
 8.400366178021893004e-01
 8.570758825246906909e-01
 8.741151026878880570e-01
 8.911542745337150961e-01
 9.081933938691987285e-01
 9.247065168327628371e-01
 9.406644511113166907e-01
 9.566223709406128650e-01
 9.725802753427036373e-01
 9.885381632492590276e-01
 1.004496033491071305e+00
 8.250159235613556408e-03
 2.479588476904074495e-02
 4.134159909074277411e-02
 5.788730161291320842e-02
 7.443299170592483638e-02
 9.097866869454325489e-02
 1.077975569253167148e-01
 1.248704937978946661e-01
 1.419434277011026868e-01
 1.590163585339971208e-01
 1.760892861910083040e-01
 1.931622105616686291e-01
 2.102567037726883747e-01
 2.273598104779314677e-01
 2.444629166262496378e-01
 2.615660222055886663e-01
 2.786691272035434208e-01
 2.957722316073424507e-01
 3.128237420476256969e-01
 3.298182220638656292e-01
 3.468127020718851372e-01
 3.638071820715446658e-01
 3.808016620627016069e-01
 3.977961420452119645e-01
 4.146626801398126116e-01
 4.314071581593829086e-01
 4.481516357148386254e-01
 4.648961127946750760e-01
 4.816405893870100430e-01
 4.983850654795463075e-01
 5.150908027603473549e-01
 5.317909193886517505e-01
 5.484910135060047098e-01
 5.651910836224840473e-01
 5.818911281137475466e-01
 5.985911452054690773e-01
 6.153971559257741530e-01
 6.323081199270690345e-01
 6.492190524874306146e-01
 6.661299513152685314e-01
 6.830408138907564375e-01
 6.999516374366917537e-01
 7.169393868336416675e-01
 7.340056526931661995e-01
 7.510718666943093647e-01
 7.681380243783544337e-01
 7.852041207602772355e-01
 8.022701502488505110e-01
 8.192899435551018739e-01
 8.362461531930597269e-01
 8.532023205133406618e-01
 8.701584420050647584e-01
 8.871145137579640183e-01
 9.040705314039466645e-01
 9.204726150508263371e-01
 9.362912363014044281e-01
 9.521098425804637166e-01
 9.679284328589484732e-01
 9.837470060112417647e-01
 9.995655608035991513e-01
 8.206507217730312984e-03
 2.465367015682784491e-02
 4.110082856460035849e-02
 5.754798226396434097e-02
 7.399513106848695787e-02
 9.044227478176181112e-02
 1.071619197769966558e-01
 1.241470543104523094e-01
 1.411321864040682439e-01
 1.581173159776012860e-01
 1.751024429472511634e-01
 1.920875672254604427e-01
 2.090986341134067616e-01
 2.261237414812376778e-01
 2.431488484242340098e-01
 2.601739549332618973e-01
 2.771990609989155030e-01
 2.942241666115265608e-01
 3.111930151625537655e-01
 3.281006434554029072e-01
 3.450082717855140202e-01
 3.619159001535338649e-01
 3.788235285601093127e-01
 3.957311570059181549e-01
 4.125067165721352236e-01
 4.291580705830809750e-01
 4.458094237301561957e-01
 4.624607759897996218e-01
 4.791121273375946177e-01
 4.957634777482159971e-01
 5.123876997691502178e-01
 5.290144601081132603e-01
 5.456411991916494397e-01
 5.622679156397546452e-01
 5.788946079503045627e-01
 5.955212744852641515e-01
 6.122624490488128846e-01
 6.291200267079973818e-01
 6.459775702000326580e-01
 6.628350769567524781e-01
 6.796925441459985562e-01
 6.965499686368069598e-01
 7.134892883323677992e-01
 7.305079347024346914e-01
 7.475265338017362815e-01
 7.645450816584890008e-01
 7.815635738430956048e-01
 7.985820054003422985e-01
 8.155316208866369987e-01
 8.323939775298058175e-01
 8.492562998251755868e-01
 8.661185850464602209e-01
 8.829808301709367591e-01
 8.998430318381505089e-01
 9.161276316809358056e-01
 9.318254016903542158e-01
 9.475231289464046691e-01
 9.632208096204916137e-01
 9.789184394128380706e-01
 9.946160134776543815e-01
 8.161572488027554750e-03
 2.451886593097737932e-02
 4.087615479122840012e-02
 5.723343888866015694e-02
 7.359071803358775699e-02
 8.994799202611798716e-02
 1.065762801011264221e-01
 1.234685643364757252e-01
 1.403608461018953646e-01
 1.572531253156606579e-01
 1.741454018924015745e-01
 1.910376757428954853e-01
 2.079609831698255307e-01
 2.249034095713763060e-01
 2.418458355432799856e-01
 2.587882610762454183e-01
 2.757306861607143333e-01
 2.926731107868448256e-01
 3.095559287390834413e-01
 3.263741701812234441e-01
 3.431924116610883813e-01
 3.600106531793382802e-01
 3.768288947366305042e-01
 3.936471363336506712e-01
 4.103323723450535421e-01
 4.268924790894459975e-01
 4.434525849572084066e-01
 4.600126899242789058e-01
 4.765727939656881906e-01
 4.931328970555660107e-01
 5.096755181656186240e-01
 5.262304629601801675e-01
 5.427853860884379600e-01
 5.593402861321646879e-01
 5.758951615466312290e-01
 5.924500106460883764e-01
 6.091280749573049214e-01
 6.259312623733829239e-01
 6.427344149291592812e-01
 6.595375299828816207e-01
 6.763406046190106879e-01
 6.931436356116899011e-01
 7.100284408212478304e-01
 7.269924178570690287e-01
 7.439563465233549611e-01
 7.609202227183623490e-01
 7.778840418630678100e-01
 7.948477988297150132e-01
 8.117177527452290597e-01
 8.284752350945049360e-01
 8.452326820439104438e-01
 8.619900907474905560e-01
 8.787474580457971252e-01
 8.955047804215611196e-01
 9.116861685414749950e-01
 9.272823321359731086e-01
 9.428784513334882433e-01
 9.584745220956771838e-01
 9.740705398790826530e-01
 9.896664995537491905e-01
 8.116637753010571762e-03
 2.438406168856582443e-02
 4.065148098916977759e-02
 5.691889547159544038e-02
 7.318630494282951648e-02
 8.945370919940914822e-02
 1.059906403796964242e-01
 1.227900743079885781e-01
 1.395895057357022795e-01
 1.563889345795940189e-01
 1.731883607526839564e-01
 1.899877841640437715e-01
 2.068233322048130818e-01
 2.236830776380310803e-01
 2.405428226367080924e-01
 2.574025671913945379e-01
 2.742623112923701645e-01
 2.911220549296204552e-01
 3.079188423193522373e-01
 3.246476969110548283e-01
 3.413765515409576956e-01
 3.581054062097214219e-01
 3.748342609180305152e-01
 3.915631156665728696e-01
 4.081580280339449640e-01
 4.246268875058730741e-01
 4.410957460881333447e-01
 4.575646037561370005e-01
 4.740334604843687294e-01
 4.905023162463623132e-01
 5.069633353095708284e-01
 5.234464644442229364e-01
 5.399295714900730347e-01
 5.564126549893065876e-01
 5.728957133529322121e-01
 5.893787448456803135e-01
 6.059936989029948151e-01
 6.227424958943672539e-01
 6.394912573120806742e-01
 6.562399804380939505e-01
 6.729886622702023757e-01
 6.897372994839396920e-01
 7.065675903254865498e-01
 7.234768977299914638e-01
 7.403861556297355317e-01
 7.572953597874844123e-01
 7.742045054681978566e-01
 7.911135873637691329e-01
 8.079038810205230181e-01
 8.245564886892102763e-01
 8.412090598588283230e-01
 8.578615915567670003e-01
 8.745140804787443489e-01
 8.911665229409542199e-01
 9.072446993750269417e-01
 9.227392558727338656e-01
 9.382337662380640930e-01
 9.537282262077636519e-01
 9.692226309765118453e-01
 9.847169751080542266e-01
 8.080518165639687805e-03
 2.426533467562155474e-02
 4.045014980111735076e-02
 5.663496350434400750e-02
 7.281977574613120174e-02
 8.900458648585632404e-02
 1.054477630873859317e-01
 1.221507758982544878e-01
 1.388537872386102767e-01
 1.555567970647078191e-01
 1.722598053310468169e-01
 1.889628119902885262e-01
 2.057048713276407592e-01
 2.224774767644344398e-01
 2.392500819035238979e-01
 2.560226867384666205e-01
 2.727952912626301352e-01
 2.895678954691920937e-01
 3.062749370249062686e-01
 3.229125718896728725e-01
 3.395502067861809192e-01
 3.561878417150178833e-01
 3.728254766767851724e-01
 3.894631116720980724e-01
 4.059671675658911849e-01
 4.223469080653254881e-01
 4.387266471204616658e-01
 4.551063846875011421e-01
 4.714861207208437821e-01
 4.878658551730146176e-01
 5.042486815094879837e-01
 5.206611834484420331e-01
 5.370736642309286157e-01
 5.534861224802914981e-01
 5.698985566977954331e-01
 5.863109652487653589e-01
 6.028613465323396925e-01
 6.195528995366439418e-01
 6.362444164707569128e-01
 6.529358945517752533e-01
 6.696273307030312649e-01
 6.863187215141743902e-01
 7.030903447023660879e-01
 7.199362208486083103e-01
 7.367820540266371010e-01